File written on 24Apr2023 at 19:31:50 

calc_only_A  :  F

begin real_lattice
   6.8171434   0.0000000   0.0000000
  -3.4085717   5.9038194   0.0000000
   0.0000000   0.0000000  20.0783738
end real_lattice

begin recip_lattice
   0.9216742   0.5321289   0.0000000
   0.0000000   1.0642577   0.0000000
   0.0000000   0.0000000   0.3129330
end recip_lattice

begin kpoints
    36
    0.00000000    0.00000000    0.00000000
    0.00000000    0.16666667    0.00000000
    0.00000000    0.33333333    0.00000000
    0.00000000    0.50000000    0.00000000
    0.00000000    0.66666667    0.00000000
    0.00000000    0.83333333    0.00000000
    0.16666667    0.00000000    0.00000000
    0.16666667    0.16666667    0.00000000
    0.16666667    0.33333333    0.00000000
    0.16666667    0.50000000    0.00000000
    0.16666667    0.66666667    0.00000000
    0.16666667    0.83333333    0.00000000
    0.33333333    0.00000000    0.00000000
    0.33333333    0.16666667    0.00000000
    0.33333333    0.33333333    0.00000000
    0.33333333    0.50000000    0.00000000
    0.33333333    0.66666667    0.00000000
    0.33333333    0.83333333    0.00000000
    0.50000000    0.00000000    0.00000000
    0.50000000    0.16666667    0.00000000
    0.50000000    0.33333333    0.00000000
    0.50000000    0.50000000    0.00000000
    0.50000000    0.66666667    0.00000000
    0.50000000    0.83333333    0.00000000
    0.66666667    0.00000000    0.00000000
    0.66666667    0.16666667    0.00000000
    0.66666667    0.33333333    0.00000000
    0.66666667    0.50000000    0.00000000
    0.66666667    0.66666667    0.00000000
    0.66666667    0.83333333    0.00000000
    0.83333333    0.00000000    0.00000000
    0.83333333    0.16666667    0.00000000
    0.83333333    0.33333333    0.00000000
    0.83333333    0.50000000    0.00000000
    0.83333333    0.66666667    0.00000000
    0.83333333    0.83333333    0.00000000
end kpoints

begin projections
     0
end projections

begin auto_projections
    36
     0
end auto_projections

begin nnkpts
   8
     1     2      0   0   0
     1     7      0   0   0
     1     6      0  -1   0
     1    12      0  -1   0
     1    31     -1   0   0
     1    32     -1   0   0
     1     1      0   0   1
     1     1      0   0  -1
     2     1      0   0   0
     2     3      0   0   0
     2     7      0   0   0
     2     8      0   0   0
     2    32     -1   0   0
     2    33     -1   0   0
     2     2      0   0   1
     2     2      0   0  -1
     3     2      0   0   0
     3     4      0   0   0
     3     8      0   0   0
     3     9      0   0   0
     3    33     -1   0   0
     3    34     -1   0   0
     3     3      0   0   1
     3     3      0   0  -1
     4     3      0   0   0
     4     5      0   0   0
     4     9      0   0   0
     4    10      0   0   0
     4    34     -1   0   0
     4    35     -1   0   0
     4     4      0   0   1
     4     4      0   0  -1
     5     4      0   0   0
     5     6      0   0   0
     5    10      0   0   0
     5    11      0   0   0
     5    35     -1   0   0
     5    36     -1   0   0
     5     5      0   0   1
     5     5      0   0  -1
     6     5      0   0   0
     6    11      0   0   0
     6    12      0   0   0
     6     1      0   1   0
     6    31     -1   1   0
     6    36     -1   0   0
     6     6      0   0   1
     6     6      0   0  -1
     7     1      0   0   0
     7     2      0   0   0
     7     8      0   0   0
     7    13      0   0   0
     7    12      0  -1   0
     7    18      0  -1   0
     7     7      0   0   1
     7     7      0   0  -1
     8     2      0   0   0
     8     3      0   0   0
     8     7      0   0   0
     8     9      0   0   0
     8    13      0   0   0
     8    14      0   0   0
     8     8      0   0   1
     8     8      0   0  -1
     9     3      0   0   0
     9     4      0   0   0
     9     8      0   0   0
     9    10      0   0   0
     9    14      0   0   0
     9    15      0   0   0
     9     9      0   0   1
     9     9      0   0  -1
    10     4      0   0   0
    10     5      0   0   0
    10     9      0   0   0
    10    11      0   0   0
    10    15      0   0   0
    10    16      0   0   0
    10    10      0   0   1
    10    10      0   0  -1
    11     5      0   0   0
    11     6      0   0   0
    11    10      0   0   0
    11    12      0   0   0
    11    16      0   0   0
    11    17      0   0   0
    11    11      0   0   1
    11    11      0   0  -1
    12     6      0   0   0
    12    11      0   0   0
    12    17      0   0   0
    12    18      0   0   0
    12     1      0   1   0
    12     7      0   1   0
    12    12      0   0   1
    12    12      0   0  -1
    13     7      0   0   0
    13     8      0   0   0
    13    14      0   0   0
    13    19      0   0   0
    13    18      0  -1   0
    13    24      0  -1   0
    13    13      0   0   1
    13    13      0   0  -1
    14     8      0   0   0
    14     9      0   0   0
    14    13      0   0   0
    14    15      0   0   0
    14    19      0   0   0
    14    20      0   0   0
    14    14      0   0   1
    14    14      0   0  -1
    15     9      0   0   0
    15    10      0   0   0
    15    14      0   0   0
    15    16      0   0   0
    15    20      0   0   0
    15    21      0   0   0
    15    15      0   0   1
    15    15      0   0  -1
    16    10      0   0   0
    16    11      0   0   0
    16    15      0   0   0
    16    17      0   0   0
    16    21      0   0   0
    16    22      0   0   0
    16    16      0   0   1
    16    16      0   0  -1
    17    11      0   0   0
    17    12      0   0   0
    17    16      0   0   0
    17    18      0   0   0
    17    22      0   0   0
    17    23      0   0   0
    17    17      0   0   1
    17    17      0   0  -1
    18    12      0   0   0
    18    17      0   0   0
    18    23      0   0   0
    18    24      0   0   0
    18     7      0   1   0
    18    13      0   1   0
    18    18      0   0   1
    18    18      0   0  -1
    19    13      0   0   0
    19    14      0   0   0
    19    20      0   0   0
    19    25      0   0   0
    19    24      0  -1   0
    19    30      0  -1   0
    19    19      0   0   1
    19    19      0   0  -1
    20    14      0   0   0
    20    15      0   0   0
    20    19      0   0   0
    20    21      0   0   0
    20    25      0   0   0
    20    26      0   0   0
    20    20      0   0   1
    20    20      0   0  -1
    21    15      0   0   0
    21    16      0   0   0
    21    20      0   0   0
    21    22      0   0   0
    21    26      0   0   0
    21    27      0   0   0
    21    21      0   0   1
    21    21      0   0  -1
    22    16      0   0   0
    22    17      0   0   0
    22    21      0   0   0
    22    23      0   0   0
    22    27      0   0   0
    22    28      0   0   0
    22    22      0   0   1
    22    22      0   0  -1
    23    17      0   0   0
    23    18      0   0   0
    23    22      0   0   0
    23    24      0   0   0
    23    28      0   0   0
    23    29      0   0   0
    23    23      0   0   1
    23    23      0   0  -1
    24    18      0   0   0
    24    23      0   0   0
    24    29      0   0   0
    24    30      0   0   0
    24    13      0   1   0
    24    19      0   1   0
    24    24      0   0   1
    24    24      0   0  -1
    25    19      0   0   0
    25    20      0   0   0
    25    26      0   0   0
    25    31      0   0   0
    25    30      0  -1   0
    25    36      0  -1   0
    25    25      0   0   1
    25    25      0   0  -1
    26    20      0   0   0
    26    21      0   0   0
    26    25      0   0   0
    26    27      0   0   0
    26    31      0   0   0
    26    32      0   0   0
    26    26      0   0   1
    26    26      0   0  -1
    27    21      0   0   0
    27    22      0   0   0
    27    26      0   0   0
    27    28      0   0   0
    27    32      0   0   0
    27    33      0   0   0
    27    27      0   0   1
    27    27      0   0  -1
    28    22      0   0   0
    28    23      0   0   0
    28    27      0   0   0
    28    29      0   0   0
    28    33      0   0   0
    28    34      0   0   0
    28    28      0   0   1
    28    28      0   0  -1
    29    23      0   0   0
    29    24      0   0   0
    29    28      0   0   0
    29    30      0   0   0
    29    34      0   0   0
    29    35      0   0   0
    29    29      0   0   1
    29    29      0   0  -1
    30    24      0   0   0
    30    29      0   0   0
    30    35      0   0   0
    30    36      0   0   0
    30    19      0   1   0
    30    25      0   1   0
    30    30      0   0   1
    30    30      0   0  -1
    31    25      0   0   0
    31    26      0   0   0
    31    32      0   0   0
    31     1      1   0   0
    31     6      1  -1   0
    31    36      0  -1   0
    31    31      0   0   1
    31    31      0   0  -1
    32    26      0   0   0
    32    27      0   0   0
    32    31      0   0   0
    32    33      0   0   0
    32     1      1   0   0
    32     2      1   0   0
    32    32      0   0   1
    32    32      0   0  -1
    33    27      0   0   0
    33    28      0   0   0
    33    32      0   0   0
    33    34      0   0   0
    33     2      1   0   0
    33     3      1   0   0
    33    33      0   0   1
    33    33      0   0  -1
    34    28      0   0   0
    34    29      0   0   0
    34    33      0   0   0
    34    35      0   0   0
    34     3      1   0   0
    34     4      1   0   0
    34    34      0   0   1
    34    34      0   0  -1
    35    29      0   0   0
    35    30      0   0   0
    35    34      0   0   0
    35    36      0   0   0
    35     4      1   0   0
    35     5      1   0   0
    35    35      0   0   1
    35    35      0   0  -1
    36    30      0   0   0
    36    35      0   0   0
    36     5      1   0   0
    36     6      1   0   0
    36    25      0   1   0
    36    31      0   1   0
    36    36      0   0   1
    36    36      0   0  -1
end nnkpts

begin exclude_bands
   8
   1
   2
   3
   4
   5
   6
   7
   8
end exclude_bands
