       #
       # Generated by the Wannier90 code http://www.wannier.org
       # On 17Dec2022 at 10:05:41 
       #
CRYSTAL
PRIMVEC
   2.6410001   0.0000000   0.0000000
  -1.3204998   2.2871732   0.0000000
   0.0000000   0.0000000   9.9999998
CONVVEC
   2.6410001   0.0000000   0.0000000
  -1.3204998   2.2871732   0.0000000
   0.0000000   0.0000000   9.9999998
PRIMCOORD
     2  1
C       0.0000000   0.0000000   0.0000000
C      -0.0000011   1.5247829   0.0000000


BEGIN_BLOCK_DATAGRID_3D
3D_field
BEGIN_DATAGRID_3D_UNKNOWN
    24    24    72
   -1.485563   -2.573070  -10.416666
   7.5928754   0.0000000   0.0000000
  -3.7964370   6.5756230   0.0000000
   0.0000000   0.0000000  29.5833328
  0.10759E-01  0.10759E-01  0.21425E-02 -0.15335E-02  0.66224E-03 -0.63039E-02
 -0.22512E-01 -0.53312E-01 -0.10553E+00 -0.10831E+00 -0.61288E-01 -0.27315E-01
 -0.40449E-02 -0.40449E-02 -0.27315E-01 -0.61288E-01 -0.10831E+00 -0.10553E+00
 -0.53312E-01 -0.22512E-01 -0.63040E-02  0.66212E-03 -0.15337E-02  0.21423E-02
  0.10759E-01  0.25220E-01  0.10759E-01  0.15709E-04 -0.16283E-02 -0.23781E-02
  0.43755E-03 -0.85346E-02 -0.51338E-01 -0.94403E-01 -0.77214E-01 -0.50573E-01
 -0.42942E-01 -0.42537E-01 -0.42942E-01 -0.50573E-01 -0.77214E-01 -0.94403E-01
 -0.51338E-01 -0.85344E-02  0.43764E-03 -0.23781E-02 -0.16283E-02  0.15663E-04
  0.67324E-03  0.10759E-01  0.10759E-01  0.67323E-03  0.15269E-02  0.41377E-02
  0.24825E-01  0.39773E-01  0.54289E-01  0.40839E-01  0.22249E-02 -0.29746E-01
 -0.53050E-01 -0.69827E-01 -0.69828E-01 -0.53050E-01 -0.29746E-01  0.22249E-02
  0.40839E-01  0.54290E-01  0.39773E-01  0.24825E-01  0.41377E-02  0.15269E-02
  0.15270E-02  0.15694E-04  0.21424E-02  0.15657E-04  0.15269E-02  0.90044E-02
  0.35165E-01  0.73271E-01  0.13991E+00  0.19201E+00  0.17266E+00  0.78559E-01
 -0.43222E-01 -0.13107E+00 -0.15554E+00 -0.13107E+00 -0.43222E-01  0.78559E-01
  0.17266E+00  0.19201E+00  0.13991E+00  0.73271E-01  0.35165E-01  0.90045E-02
  0.41378E-02 -0.16283E-02 -0.15337E-02 -0.15337E-02 -0.16284E-02  0.41377E-02
  0.35165E-01  0.85417E-01  0.19250E+00  0.30846E+00  0.37394E+00  0.25136E+00
 -0.37095E-03 -0.21309E+00 -0.31718E+00 -0.31718E+00 -0.21309E+00 -0.37174E-03
  0.25136E+00  0.37394E+00  0.30846E+00  0.19250E+00  0.85417E-01  0.35165E-01
  0.24825E-01 -0.23781E-02  0.66208E-03 -0.21181E-02  0.66212E-03 -0.23781E-02
  0.24825E-01  0.73271E-01  0.19250E+00  0.36056E+00  0.59293E+00  0.58404E+00
  0.13855E+00 -0.31149E+00 -0.62362E+00 -0.74205E+00 -0.62362E+00 -0.31150E+00
  0.13855E+00  0.58403E+00  0.59293E+00  0.36056E+00  0.19250E+00  0.73271E-01
  0.39774E-01  0.43774E-03 -0.63039E-02 -0.13948E-03 -0.13934E-03 -0.63038E-02
  0.43777E-03  0.39774E-01  0.13991E+00  0.30846E+00  0.59293E+00  0.83781E+00
  0.42056E+00 -0.42445E+00 -0.11107E+01 -0.15247E+01 -0.15247E+01 -0.11107E+01
 -0.42445E+00  0.42056E+00  0.83781E+00  0.59293E+00  0.30846E+00  0.13991E+00
  0.54290E-01 -0.85341E-02 -0.22512E-01 -0.90021E-02 -0.56729E-02 -0.90019E-02
 -0.22512E-01 -0.85341E-02  0.54290E-01  0.19201E+00  0.37394E+00  0.58403E+00
  0.42056E+00 -0.45143E+00 -0.15155E+01 -0.25532E+01 -0.31971E+01 -0.25532E+01
 -0.15155E+01 -0.45143E+00  0.42056E+00  0.58403E+00  0.37394E+00  0.19201E+00
  0.40840E-01 -0.51337E-01 -0.53312E-01 -0.30308E-01 -0.11772E-01 -0.11772E-01
 -0.30308E-01 -0.53312E-01 -0.51337E-01  0.40840E-01  0.17266E+00  0.25136E+00
  0.13855E+00 -0.42445E+00 -0.15155E+01 -0.32248E+01 -0.58321E+01 -0.58321E+01
 -0.32248E+01 -0.15155E+01 -0.42446E+00  0.13855E+00  0.25136E+00  0.17266E+00
  0.22255E-02 -0.94403E-01 -0.10553E+00 -0.54927E-01 -0.22456E-01 -0.82325E-02
 -0.22456E-01 -0.54927E-01 -0.10553E+00 -0.94403E-01  0.22255E-02  0.78559E-01
 -0.37156E-03 -0.31150E+00 -0.11107E+01 -0.25532E+01 -0.58321E+01 -0.84400E+01
 -0.58321E+01 -0.25532E+01 -0.11107E+01 -0.31150E+00 -0.37217E-03  0.78559E-01
 -0.29745E-01 -0.77213E-01 -0.10831E+00 -0.65817E-01 -0.27622E-01 -0.70371E-02
 -0.70372E-02 -0.27622E-01 -0.65817E-01 -0.10831E+00 -0.77213E-01 -0.29745E-01
 -0.43222E-01 -0.21309E+00 -0.62362E+00 -0.15247E+01 -0.31971E+01 -0.58321E+01
 -0.58321E+01 -0.31971E+01 -0.15247E+01 -0.62362E+00 -0.21309E+00 -0.43222E-01
 -0.53050E-01 -0.50572E-01 -0.61288E-01 -0.48017E-01 -0.22568E-01 -0.28407E-02
  0.30150E-02 -0.28408E-02 -0.22568E-01 -0.48018E-01 -0.61288E-01 -0.50572E-01
 -0.53050E-01 -0.13107E+00 -0.31718E+00 -0.74205E+00 -0.15247E+01 -0.25532E+01
 -0.32248E+01 -0.25532E+01 -0.15247E+01 -0.74205E+00 -0.31718E+00 -0.13107E+00
 -0.69828E-01 -0.42942E-01 -0.27315E-01 -0.17422E-01 -0.54930E-02  0.35320E-02
  0.93651E-02  0.93650E-02  0.35320E-02 -0.54930E-02 -0.17422E-01 -0.27315E-01
 -0.42942E-01 -0.69828E-01 -0.15554E+00 -0.31718E+00 -0.62362E+00 -0.11107E+01
 -0.15155E+01 -0.15155E+01 -0.11107E+01 -0.62362E+00 -0.31718E+00 -0.15554E+00
 -0.69828E-01 -0.42537E-01 -0.40448E-02  0.17024E-01  0.26624E-01  0.15292E-01
  0.14900E-01  0.81347E-02  0.14901E-01  0.15292E-01  0.26624E-01  0.17023E-01
 -0.40449E-02 -0.42537E-01 -0.69828E-01 -0.13107E+00 -0.21309E+00 -0.31150E+00
 -0.42446E+00 -0.45143E+00 -0.42446E+00 -0.31150E+00 -0.21309E+00 -0.13107E+00
 -0.53050E-01 -0.42942E-01 -0.40448E-02  0.39181E-01  0.63887E-01  0.37987E-01
  0.17619E-01  0.65706E-02  0.65707E-02  0.17619E-01  0.37987E-01  0.63887E-01
  0.39181E-01 -0.40448E-02 -0.42942E-01 -0.53050E-01 -0.43222E-01 -0.37260E-03
  0.13855E+00  0.42056E+00  0.42056E+00  0.13855E+00 -0.37235E-03 -0.43222E-01
 -0.29745E-01 -0.50572E-01 -0.27315E-01  0.17024E-01  0.63887E-01  0.55530E-01
  0.24008E-01 -0.26047E-03 -0.12482E-01 -0.26035E-03  0.24008E-01  0.55530E-01
  0.63887E-01  0.17024E-01 -0.27315E-01 -0.50572E-01 -0.29745E-01  0.78559E-01
  0.25136E+00  0.58403E+00  0.83781E+00  0.58403E+00  0.25136E+00  0.78559E-01
  0.22256E-02 -0.77213E-01 -0.61288E-01 -0.17422E-01  0.26624E-01  0.37987E-01
  0.24008E-01 -0.63815E-02 -0.39133E-01 -0.39133E-01 -0.63814E-02  0.24008E-01
  0.37987E-01  0.26624E-01 -0.17422E-01 -0.61288E-01 -0.77213E-01  0.22257E-02
  0.17266E+00  0.37394E+00  0.59293E+00  0.59293E+00  0.37394E+00  0.17266E+00
  0.40840E-01 -0.94403E-01 -0.10831E+00 -0.48018E-01 -0.54931E-02  0.15292E-01
  0.17619E-01 -0.26037E-03 -0.39133E-01 -0.61729E-01 -0.39133E-01 -0.26038E-03
  0.17619E-01  0.15292E-01 -0.54931E-02 -0.48018E-01 -0.10831E+00 -0.94403E-01
  0.40840E-01  0.19201E+00  0.30846E+00  0.36056E+00  0.30846E+00  0.19201E+00
  0.54290E-01 -0.51337E-01 -0.10553E+00 -0.65818E-01 -0.22569E-01  0.35319E-02
  0.14901E-01  0.65707E-02 -0.12482E-01 -0.39133E-01 -0.39133E-01 -0.12482E-01
  0.65707E-02  0.14901E-01  0.35319E-02 -0.22569E-01 -0.65818E-01 -0.10553E+00
 -0.51337E-01  0.54290E-01  0.13991E+00  0.19250E+00  0.19250E+00  0.13991E+00
  0.39774E-01 -0.85343E-02 -0.53312E-01 -0.54927E-01 -0.27623E-01 -0.28409E-02
  0.93650E-02  0.81347E-02  0.65707E-02 -0.26034E-03 -0.63814E-02 -0.26038E-03
  0.65707E-02  0.81347E-02  0.93651E-02 -0.28408E-02 -0.27623E-01 -0.54927E-01
 -0.53312E-01 -0.85342E-02  0.39774E-01  0.73272E-01  0.85417E-01  0.73271E-01
  0.24825E-01  0.43762E-03 -0.22512E-01 -0.30309E-01 -0.22456E-01 -0.70374E-02
  0.30150E-02  0.93650E-02  0.14901E-01  0.17619E-01  0.24008E-01  0.24008E-01
  0.17619E-01  0.14901E-01  0.93651E-02  0.30150E-02 -0.70373E-02 -0.22456E-01
 -0.30309E-01 -0.22512E-01  0.43767E-03  0.24825E-01  0.35165E-01  0.35165E-01
  0.41377E-02 -0.23781E-02 -0.63041E-02 -0.90026E-02 -0.11773E-01 -0.82329E-02
 -0.70374E-02 -0.28408E-02  0.35319E-02  0.15292E-01  0.37987E-01  0.55530E-01
  0.37987E-01  0.15292E-01  0.35320E-02 -0.28407E-02 -0.70372E-02 -0.82328E-02
 -0.11773E-01 -0.90023E-02 -0.63040E-02 -0.23781E-02  0.41377E-02  0.90045E-02
  0.15270E-02 -0.16282E-02  0.66219E-03 -0.13964E-03 -0.56735E-02 -0.11773E-01
 -0.22456E-01 -0.27622E-01 -0.22569E-01 -0.54932E-02  0.26624E-01  0.63887E-01
  0.63887E-01  0.26625E-01 -0.54930E-02 -0.22568E-01 -0.27622E-01 -0.22456E-01
 -0.11773E-01 -0.56733E-02 -0.13946E-03  0.66211E-03 -0.16283E-02  0.15269E-02
  0.67322E-03  0.15767E-04 -0.15335E-02 -0.21179E-02 -0.13944E-03 -0.90022E-02
 -0.30308E-01 -0.54927E-01 -0.65817E-01 -0.48018E-01 -0.17422E-01  0.17023E-01
  0.39181E-01  0.17024E-01 -0.17422E-01 -0.48017E-01 -0.65817E-01 -0.54927E-01
 -0.30308E-01 -0.90022E-02 -0.13944E-03 -0.21180E-02 -0.15337E-02  0.15641E-04
  0.36518E-04  0.36623E-04  0.47818E-04  0.55781E-04  0.36628E-04  0.55876E-04
  0.49152E-04  0.28762E-04  0.11914E-03  0.11138E-03 -0.48477E-04 -0.14171E-03
 -0.22345E-03 -0.22340E-03 -0.14164E-03 -0.48482E-04  0.11135E-03  0.11950E-03
  0.29104E-04  0.49213E-04  0.55737E-04  0.36510E-04  0.55730E-04  0.47690E-04
  0.36576E-04  0.22816E-04  0.36648E-04  0.35747E-04  0.73440E-05 -0.15607E-04
 -0.74149E-04 -0.16564E-03 -0.21364E-03 -0.65108E-04 -0.54959E-05 -0.40398E-04
 -0.47800E-04 -0.74701E-04 -0.47789E-04 -0.40487E-04 -0.58175E-05 -0.65035E-04
 -0.21309E-03 -0.16533E-03 -0.74025E-04 -0.15584E-04  0.73927E-05  0.35733E-04
  0.32648E-04  0.36754E-04  0.36735E-04  0.32613E-04 -0.19135E-04 -0.66070E-04
 -0.14686E-03 -0.24226E-03 -0.40900E-03 -0.43197E-03 -0.20018E-03  0.11817E-04
  0.10495E-03  0.14067E-03  0.14066E-03  0.10487E-03  0.11628E-04 -0.20028E-03
 -0.43155E-03 -0.40854E-03 -0.24196E-03 -0.14666E-03 -0.65935E-04 -0.19037E-04
 -0.19059E-04  0.35770E-04  0.47802E-04  0.35763E-04 -0.19109E-04 -0.76470E-04
 -0.16731E-03 -0.27547E-03 -0.46020E-03 -0.56487E-03 -0.38332E-03  0.59908E-04
  0.36709E-03  0.44037E-03  0.45768E-03  0.44026E-03  0.36688E-03  0.59775E-04
 -0.38315E-03 -0.56447E-03 -0.45983E-03 -0.27520E-03 -0.16714E-03 -0.76334E-04
 -0.65954E-04  0.73052E-05  0.55551E-04  0.55598E-04  0.73176E-05 -0.66004E-04
 -0.16722E-03 -0.29287E-03 -0.51143E-03 -0.66640E-03 -0.54677E-03  0.15198E-03
  0.73674E-03  0.92855E-03  0.97245E-03  0.97237E-03  0.92822E-03  0.73627E-03
  0.15166E-03 -0.54662E-03 -0.66602E-03 -0.51103E-03 -0.29265E-03 -0.16705E-03
 -0.14657E-03 -0.15641E-04  0.36163E-04  0.32378E-04  0.36417E-04 -0.15517E-04
 -0.14659E-03 -0.27518E-03 -0.51123E-03 -0.75964E-03 -0.12666E-02 -0.51663E-03
  0.14013E-02  0.18993E-02  0.19507E-02  0.18873E-02  0.19503E-02  0.18985E-02
  0.14003E-02 -0.51676E-03 -0.12660E-02 -0.75912E-03 -0.51088E-03 -0.27500E-03
 -0.24170E-03 -0.73982E-04  0.55484E-04  0.46024E-04  0.46444E-04  0.55997E-04
 -0.73753E-04 -0.24168E-03 -0.45963E-03 -0.66605E-03 -0.12667E-02 -0.14157E-02
  0.17528E-02  0.35575E-02  0.32550E-02  0.33051E-02  0.33048E-02  0.32541E-02
  0.35558E-02  0.17516E-02 -0.14149E-02 -0.12658E-02 -0.66566E-03 -0.45943E-03
 -0.40798E-03 -0.16519E-03  0.49133E-04  0.17845E-03  0.19438E-03  0.17903E-03
  0.49549E-04 -0.16496E-03 -0.40794E-03 -0.56399E-03 -0.54659E-03 -0.51747E-03
  0.17518E-02  0.45888E-02  0.46650E-02  0.51352E-02  0.52264E-02  0.51344E-02
  0.46635E-02  0.45867E-02  0.17511E-02 -0.51682E-03 -0.54618E-03 -0.56384E-03
 -0.43082E-03 -0.21295E-03  0.28963E-04  0.16783E-03  0.27156E-03  0.27175E-03
  0.16808E-03  0.29146E-04 -0.21290E-03 -0.43069E-03 -0.38256E-03  0.15164E-03
  0.13999E-02  0.35558E-02  0.46639E-02  0.58410E-02  0.49395E-02  0.49389E-02
  0.58398E-02  0.46625E-02  0.35546E-02  0.13996E-02  0.15174E-03 -0.38257E-03
 -0.19971E-03 -0.64911E-04  0.11916E-03  0.12387E-03  0.19660E-03  0.20438E-03
  0.19666E-03  0.12384E-03  0.11898E-03 -0.64923E-04 -0.19941E-03  0.60086E-04
  0.73595E-03  0.18977E-02  0.32527E-02  0.51320E-02  0.49352E-02  0.25934E-02
  0.49343E-02  0.51311E-02  0.32519E-02  0.18973E-02  0.73577E-03  0.59941E-04
  0.11859E-04 -0.55850E-05  0.11121E-03  0.11286E-03  0.12470E-03  0.14381E-03
  0.14382E-03  0.12465E-03  0.11269E-03  0.11107E-03 -0.53585E-05  0.12136E-04
  0.36683E-03  0.92751E-03  0.19486E-02  0.33016E-02  0.52201E-02  0.49301E-02
  0.49298E-02  0.52197E-02  0.33013E-02  0.19484E-02  0.92732E-03  0.36663E-03
  0.10483E-03 -0.40357E-04 -0.48369E-04  0.15493E-04  0.50055E-04  0.91334E-04
  0.78821E-04  0.91324E-04  0.49995E-04  0.15412E-04 -0.48313E-04 -0.40183E-04
  0.10497E-03  0.43986E-03  0.97118E-03  0.18847E-02  0.33002E-02  0.51273E-02
  0.58325E-02  0.51273E-02  0.33002E-02  0.18847E-02  0.97114E-03  0.43974E-03
  0.14049E-03 -0.47762E-04 -0.14148E-03 -0.97195E-04 -0.75351E-05  0.35998E-04
  0.57991E-04  0.58021E-04  0.36053E-04 -0.75459E-05 -0.97335E-04 -0.14160E-03
 -0.47745E-04  0.14058E-03  0.45705E-03  0.97090E-03  0.19472E-02  0.32488E-02
  0.46568E-02  0.46570E-02  0.32492E-02  0.19474E-02  0.97095E-03  0.45699E-03
  0.14053E-03 -0.74614E-04 -0.22318E-03 -0.18769E-03 -0.59880E-04 -0.66320E-05
  0.32552E-04  0.31973E-04  0.32641E-04 -0.65516E-05 -0.59971E-04 -0.18793E-03
 -0.22333E-03 -0.74581E-04  0.14061E-03  0.43971E-03  0.92662E-03  0.18952E-02
  0.35499E-02  0.45803E-02  0.35505E-02  0.18956E-02  0.92683E-03  0.43965E-03
  0.10493E-03 -0.47669E-04 -0.22312E-03 -0.20728E-03 -0.11052E-04  0.89319E-05
  0.18392E-04  0.26768E-04  0.26825E-04  0.18516E-04  0.89502E-05 -0.11085E-04
 -0.20735E-03 -0.22316E-03 -0.47599E-04  0.10507E-03  0.36655E-03  0.73487E-03
  0.13974E-02  0.17485E-02  0.17490E-02  0.13981E-02  0.73523E-03  0.36656E-03
  0.12129E-04 -0.40148E-04 -0.14144E-03 -0.18766E-03 -0.11054E-04  0.58757E-04
  0.21631E-04  0.17589E-04  0.20752E-04  0.17670E-04  0.21675E-04  0.58748E-04
 -0.10973E-04 -0.18767E-03 -0.14140E-03 -0.40024E-04  0.12337E-04  0.60078E-04
  0.15118E-03 -0.51687E-03 -0.14135E-02 -0.51635E-03  0.15148E-03  0.60095E-04
 -0.19924E-03 -0.52663E-05 -0.48373E-04 -0.97279E-04 -0.59963E-04  0.89325E-05
  0.21701E-04  0.23498E-04  0.12270E-04  0.12235E-04  0.23476E-04  0.21660E-04
  0.89952E-05 -0.59871E-04 -0.97261E-04 -0.48400E-04 -0.52467E-05 -0.19899E-03
 -0.38212E-03 -0.54601E-03 -0.12649E-02 -0.12649E-02 -0.54600E-03 -0.38227E-03
 -0.43057E-03 -0.64868E-04  0.11084E-03  0.15193E-04 -0.76646E-05 -0.66198E-05
  0.18496E-04  0.17725E-04  0.12321E-04 -0.37418E-05  0.12158E-04  0.17648E-04
  0.18501E-04 -0.65222E-05 -0.76242E-05  0.15147E-04  0.11061E-03 -0.64896E-04
 -0.43018E-03 -0.56337E-03 -0.66536E-03 -0.75879E-03 -0.66546E-03 -0.56366E-03
 -0.40805E-03 -0.21307E-03  0.11860E-03  0.11230E-03  0.49779E-04  0.35952E-04
  0.32649E-04  0.26902E-04  0.20897E-04  0.12356E-04  0.12229E-04  0.20741E-04
  0.26838E-04  0.32649E-04  0.35988E-04  0.49789E-04  0.11223E-03  0.11836E-03
 -0.21297E-03 -0.40766E-03 -0.45921E-03 -0.51068E-03 -0.51075E-03 -0.45945E-03
 -0.24184E-03 -0.16529E-03  0.28609E-04  0.12329E-03  0.12426E-03  0.91149E-04
  0.58002E-04  0.32069E-04  0.26929E-04  0.17791E-04  0.23620E-04  0.17690E-04
  0.26843E-04  0.32009E-04  0.58023E-04  0.91215E-04  0.12435E-03  0.12326E-03
  0.28572E-04 -0.16513E-03 -0.24162E-03 -0.27500E-03 -0.29266E-03 -0.27514E-03
 -0.14666E-03 -0.74075E-04  0.48853E-04  0.16721E-03  0.19602E-03  0.14349E-03
  0.78759E-04  0.58064E-04  0.32699E-04  0.18541E-04  0.21783E-04  0.21776E-04
  0.18495E-04  0.32645E-04  0.58029E-04  0.78811E-04  0.14360E-03  0.19616E-03
  0.16738E-03  0.48998E-04 -0.73980E-04 -0.14658E-03 -0.16709E-03 -0.16711E-03
 -0.66008E-04 -0.15617E-04  0.55548E-04  0.17797E-03  0.27073E-03  0.20391E-03
  0.14362E-03  0.91340E-04  0.36085E-04 -0.65871E-05  0.89777E-05  0.58957E-04
  0.91359E-05 -0.65274E-05  0.36104E-04  0.91367E-04  0.14374E-03  0.20409E-03
  0.27102E-03  0.17821E-03  0.55588E-04 -0.15643E-04 -0.66020E-04 -0.76398E-04
 -0.19066E-04  0.74418E-05  0.36539E-04  0.46297E-04  0.19375E-03  0.27107E-03
  0.19637E-03  0.12461E-03  0.50027E-04 -0.76259E-05 -0.60130E-04 -0.11178E-04
 -0.10935E-04 -0.59870E-04 -0.74968E-05  0.50111E-04  0.12477E-03  0.19655E-03
  0.27122E-03  0.19387E-03  0.46292E-04  0.36401E-04  0.73279E-05 -0.19103E-04
  0.32563E-04  0.35818E-04  0.55793E-04  0.32882E-04  0.46604E-04  0.17859E-03
  0.16771E-03  0.12373E-03  0.11282E-03  0.15363E-04 -0.97446E-04 -0.18805E-03
 -0.20752E-03 -0.18781E-03 -0.97268E-04  0.15487E-04  0.11299E-03  0.12400E-03
  0.16782E-03  0.17851E-03  0.46443E-04  0.32752E-04  0.55652E-04  0.35681E-04
 -0.10685E-01 -0.10685E-01 -0.20580E-02  0.16285E-02 -0.56143E-03  0.64233E-02
  0.22591E-01  0.53346E-01  0.10558E+00  0.10832E+00  0.61181E-01  0.27109E-01
  0.37336E-02  0.37336E-02  0.27110E-01  0.61181E-01  0.10832E+00  0.10558E+00
  0.53346E-01  0.22591E-01  0.64233E-02 -0.56139E-03  0.16285E-02 -0.20580E-02
 -0.10685E-01 -0.25136E-01 -0.10685E-01  0.38697E-04  0.16384E-02  0.23569E-02
 -0.55305E-03  0.83145E-02  0.50984E-01  0.94146E-01  0.77109E-01  0.50503E-01
  0.42879E-01  0.42448E-01  0.42879E-01  0.50503E-01  0.77109E-01  0.94146E-01
  0.50984E-01  0.83147E-02 -0.55292E-03  0.23570E-02  0.16385E-02  0.38753E-04
 -0.63712E-03 -0.10685E-01 -0.10685E-01 -0.63720E-03 -0.15582E-02 -0.42323E-02
 -0.25071E-01 -0.40169E-01 -0.54864E-01 -0.41435E-01 -0.25079E-02  0.29762E-01
  0.53231E-01  0.70073E-01  0.70073E-01  0.53231E-01  0.29762E-01 -0.25077E-02
 -0.41435E-01 -0.54863E-01 -0.40168E-01 -0.25070E-01 -0.42322E-02 -0.15581E-02
 -0.15581E-02  0.38728E-04 -0.20580E-02  0.38705E-04 -0.15581E-02 -0.91263E-02
 -0.35447E-01 -0.73731E-01 -0.14060E+00 -0.19280E+00 -0.17317E+00 -0.78429E-01
  0.43841E-01  0.13183E+00  0.15635E+00  0.13183E+00  0.43841E-01 -0.78429E-01
 -0.17317E+00 -0.19280E+00 -0.14060E+00 -0.73731E-01 -0.35447E-01 -0.91262E-02
 -0.42322E-02  0.16384E-02  0.16284E-02  0.16284E-02  0.16385E-02 -0.42323E-02
 -0.35447E-01 -0.85896E-01 -0.19329E+00 -0.30946E+00 -0.37460E+00 -0.25104E+00
  0.15433E-02  0.21462E+00  0.31879E+00  0.31879E+00  0.21462E+00  0.15434E-02
 -0.25104E+00 -0.37460E+00 -0.30946E+00 -0.19329E+00 -0.85895E-01 -0.35447E-01
 -0.25070E-01  0.23569E-02 -0.56157E-03  0.22751E-02 -0.56139E-03  0.23571E-02
 -0.25070E-01 -0.73731E-01 -0.19329E+00 -0.36164E+00 -0.59402E+00 -0.58386E+00
 -0.13640E+00  0.31438E+00  0.62681E+00  0.74518E+00  0.62681E+00  0.31438E+00
 -0.13640E+00 -0.58386E+00 -0.59402E+00 -0.36164E+00 -0.19329E+00 -0.73731E-01
 -0.40168E-01 -0.55291E-03  0.64232E-02  0.36332E-03  0.36359E-03  0.64236E-02
 -0.55263E-03 -0.40168E-01 -0.14060E+00 -0.30946E+00 -0.59402E+00 -0.83817E+00
 -0.41761E+00  0.42940E+00  0.11158E+01  0.15299E+01  0.15299E+01  0.11158E+01
  0.42940E+00 -0.41761E+00 -0.83817E+00 -0.59402E+00 -0.30946E+00 -0.14060E+00
 -0.54863E-01  0.83148E-02  0.22591E-01  0.93207E-02  0.60688E-02  0.93211E-02
  0.22592E-01  0.83152E-02 -0.54863E-01 -0.19280E+00 -0.37460E+00 -0.58386E+00
 -0.41761E+00  0.45760E+00  0.15223E+01  0.25611E+01  0.32054E+01  0.25611E+01
  0.15223E+01  0.45760E+00 -0.41761E+00 -0.58386E+00 -0.37460E+00 -0.19280E+00
 -0.41434E-01  0.50984E-01  0.53346E-01  0.30557E-01  0.12189E-01  0.12189E-01
  0.30557E-01  0.53346E-01  0.50984E-01 -0.41434E-01 -0.17317E+00 -0.25104E+00
 -0.13640E+00  0.42940E+00  0.15223E+01  0.32340E+01  0.58424E+01  0.58424E+01
  0.32340E+01  0.15223E+01  0.42940E+00 -0.13640E+00 -0.25104E+00 -0.17317E+00
 -0.25076E-02  0.94146E-01  0.10558E+00  0.55088E-01  0.22760E-01  0.85441E-02
  0.22760E-01  0.55088E-01  0.10558E+00  0.94146E-01 -0.25071E-02 -0.78429E-01
  0.15427E-02  0.31438E+00  0.11158E+01  0.25611E+01  0.58424E+01  0.84500E+01
  0.58424E+01  0.25611E+01  0.11158E+01  0.31438E+00  0.15429E-02 -0.78429E-01
  0.29762E-01  0.77109E-01  0.10832E+00  0.65937E-01  0.27816E-01  0.72756E-02
  0.72756E-02  0.27816E-01  0.65937E-01  0.10832E+00  0.77109E-01  0.29762E-01
  0.43841E-01  0.21462E+00  0.62681E+00  0.15299E+01  0.32054E+01  0.58424E+01
  0.58424E+01  0.32054E+01  0.15299E+01  0.62681E+00  0.21462E+00  0.43841E-01
  0.53231E-01  0.50503E-01  0.61181E-01  0.48023E-01  0.22661E-01  0.29836E-02
 -0.28643E-02  0.29836E-02  0.22661E-01  0.48023E-01  0.61181E-01  0.50503E-01
  0.53231E-01  0.13183E+00  0.31879E+00  0.74518E+00  0.15299E+01  0.25611E+01
  0.32340E+01  0.25611E+01  0.15299E+01  0.74518E+00  0.31879E+00  0.13183E+00
  0.70073E-01  0.42879E-01  0.27110E-01  0.17282E-01  0.54847E-02 -0.34743E-02
 -0.92652E-02 -0.92652E-02 -0.34743E-02  0.54847E-02  0.17282E-01  0.27110E-01
  0.42879E-01  0.70073E-01  0.15635E+00  0.31879E+00  0.62681E+00  0.11158E+01
  0.15223E+01  0.15223E+01  0.11158E+01  0.62681E+00  0.31879E+00  0.15635E+00
  0.70073E-01  0.42448E-01  0.37338E-02 -0.17324E-01 -0.26763E-01 -0.15302E-01
 -0.14855E-01 -0.80856E-02 -0.14855E-01 -0.15302E-01 -0.26763E-01 -0.17324E-01
  0.37337E-02  0.42448E-01  0.70073E-01  0.13183E+00  0.21461E+00  0.31438E+00
  0.42939E+00  0.45759E+00  0.42939E+00  0.31438E+00  0.21461E+00  0.13183E+00
  0.53231E-01  0.42879E-01  0.37339E-02 -0.39534E-01 -0.64047E-01 -0.38031E-01
 -0.17596E-01 -0.65381E-02 -0.65381E-02 -0.17596E-01 -0.38031E-01 -0.64048E-01
 -0.39535E-01  0.37338E-02  0.42879E-01  0.53231E-01  0.43841E-01  0.15420E-02
 -0.13640E+00 -0.41761E+00 -0.41761E+00 -0.13640E+00  0.15423E-02  0.43841E-01
  0.29762E-01  0.50503E-01  0.27110E-01 -0.17323E-01 -0.64048E-01 -0.55566E-01
 -0.24007E-01  0.26147E-03  0.12499E-01  0.26148E-03 -0.24007E-01 -0.55566E-01
 -0.64048E-01 -0.17324E-01  0.27110E-01  0.50503E-01  0.29762E-01 -0.78429E-01
 -0.25104E+00 -0.58386E+00 -0.83817E+00 -0.58386E+00 -0.25104E+00 -0.78429E-01
 -0.25072E-02  0.77109E-01  0.61181E-01  0.17282E-01 -0.26763E-01 -0.38031E-01
 -0.24007E-01  0.63927E-02  0.39134E-01  0.39134E-01  0.63927E-02 -0.24007E-01
 -0.38031E-01 -0.26763E-01  0.17282E-01  0.61181E-01  0.77109E-01 -0.25069E-02
 -0.17317E+00 -0.37460E+00 -0.59402E+00 -0.59402E+00 -0.37460E+00 -0.17317E+00
 -0.41434E-01  0.94146E-01  0.10832E+00  0.48023E-01  0.54846E-02 -0.15302E-01
 -0.17596E-01  0.26154E-03  0.39134E-01  0.61711E-01  0.39134E-01  0.26147E-03
 -0.17596E-01 -0.15302E-01  0.54847E-02  0.48023E-01  0.10832E+00  0.94146E-01
 -0.41434E-01 -0.19280E+00 -0.30946E+00 -0.36164E+00 -0.30946E+00 -0.19280E+00
 -0.54863E-01  0.50984E-01  0.10558E+00  0.65937E-01  0.22661E-01 -0.34744E-02
 -0.14855E-01 -0.65380E-02  0.12499E-01  0.39134E-01  0.39134E-01  0.12499E-01
 -0.65381E-02 -0.14855E-01 -0.34743E-02  0.22661E-01  0.65937E-01  0.10558E+00
  0.50984E-01 -0.54863E-01 -0.14060E+00 -0.19329E+00 -0.19329E+00 -0.14060E+00
 -0.40168E-01  0.83148E-02  0.53346E-01  0.55088E-01  0.27816E-01  0.29835E-02
 -0.92652E-02 -0.80856E-02 -0.65380E-02  0.26158E-03  0.63928E-02  0.26149E-03
 -0.65381E-02 -0.80856E-02 -0.92651E-02  0.29836E-02  0.27816E-01  0.55088E-01
  0.53346E-01  0.83150E-02 -0.40168E-01 -0.73731E-01 -0.85895E-01 -0.73731E-01
 -0.25070E-01 -0.55294E-03  0.22591E-01  0.30556E-01  0.22760E-01  0.72753E-02
 -0.28644E-02 -0.92651E-02 -0.14855E-01 -0.17595E-01 -0.24007E-01 -0.24007E-01
 -0.17596E-01 -0.14855E-01 -0.92652E-02 -0.28643E-02  0.72754E-02  0.22760E-01
  0.30557E-01  0.22591E-01 -0.55281E-03 -0.25070E-01 -0.35447E-01 -0.35447E-01
 -0.42323E-02  0.23570E-02  0.64233E-02  0.93204E-02  0.12188E-01  0.85438E-02
  0.72754E-02  0.29837E-02 -0.34743E-02 -0.15302E-01 -0.38031E-01 -0.55566E-01
 -0.38031E-01 -0.15302E-01 -0.34743E-02  0.29836E-02  0.72755E-02  0.85439E-02
  0.12189E-01  0.93206E-02  0.64233E-02  0.23570E-02 -0.42323E-02 -0.91262E-02
 -0.15581E-02  0.16385E-02 -0.56141E-03  0.36340E-03  0.60684E-02  0.12188E-01
  0.22760E-01  0.27816E-01  0.22661E-01  0.54847E-02 -0.26763E-01 -0.64048E-01
 -0.64048E-01 -0.26763E-01  0.54847E-02  0.22661E-01  0.27816E-01  0.22760E-01
  0.12189E-01  0.60685E-02  0.36342E-03 -0.56142E-03  0.16385E-02 -0.15581E-02
 -0.63717E-03  0.38785E-04  0.16285E-02  0.22752E-02  0.36354E-03  0.93207E-02
  0.30557E-01  0.55088E-01  0.65937E-01  0.48023E-01  0.17282E-01 -0.17324E-01
 -0.39535E-01 -0.17324E-01  0.17282E-01  0.48023E-01  0.65937E-01  0.55088E-01
  0.30557E-01  0.93206E-02  0.36343E-03  0.22752E-02  0.16285E-02  0.38712E-04
  0.45741E-02  0.45742E-02  0.37202E-02  0.77323E-02  0.62391E-02  0.10613E-01
  0.21782E-01  0.33967E-01  0.48124E-01  0.61018E-01  0.48970E-01  0.24689E-01
  0.12262E-01  0.12262E-01  0.24689E-01  0.48970E-01  0.61018E-01  0.48124E-01
  0.33967E-01  0.21782E-01  0.10613E-01  0.62392E-02  0.77323E-02  0.37202E-02
  0.45741E-02  0.83560E-02  0.45741E-02  0.11386E-01  0.82522E-02  0.53950E-02
  0.22869E-02  0.35453E-02  0.14405E-01  0.26269E-01  0.33540E-01  0.42637E-01
  0.47274E-01  0.48136E-01  0.47274E-01  0.42638E-01  0.33540E-01  0.26269E-01
  0.14405E-01  0.35454E-02  0.22869E-02  0.53950E-02  0.82522E-02  0.11386E-01
  0.10261E-01  0.45741E-02  0.45741E-02  0.10261E-01  0.10671E-01  0.40613E-02
 -0.17400E-01 -0.43601E-01 -0.62882E-01 -0.68897E-01 -0.34897E-01  0.26730E-01
  0.75318E-01  0.10081E+00  0.10081E+00  0.75318E-01  0.26730E-01 -0.34897E-01
 -0.68896E-01 -0.62882E-01 -0.43601E-01 -0.17399E-01  0.40614E-02  0.10671E-01
  0.10671E-01  0.11386E-01  0.37202E-02  0.11386E-01  0.10671E-01  0.63428E-02
 -0.30928E-01 -0.81501E-01 -0.14725E+00 -0.19059E+00 -0.15780E+00 -0.52618E-01
  0.68832E-01  0.16288E+00  0.20481E+00  0.16288E+00  0.68833E-01 -0.52617E-01
 -0.15780E+00 -0.19059E+00 -0.14725E+00 -0.81501E-01 -0.30928E-01  0.63429E-02
  0.40614E-02  0.82522E-02  0.77323E-02  0.77323E-02  0.82522E-02  0.40613E-02
 -0.30928E-01 -0.96582E-01 -0.19747E+00 -0.30465E+00 -0.32124E+00 -0.20092E+00
  0.55194E-01  0.29494E+00  0.42447E+00  0.42447E+00  0.29494E+00  0.55194E-01
 -0.20092E+00 -0.32124E+00 -0.30465E+00 -0.19747E+00 -0.96582E-01 -0.30928E-01
 -0.17399E-01  0.53950E-02  0.62391E-02  0.44032E-02  0.62392E-02  0.53950E-02
 -0.17400E-01 -0.81501E-01 -0.19747E+00 -0.35122E+00 -0.44400E+00 -0.35064E+00
  0.95282E-02  0.42104E+00  0.72143E+00  0.82650E+00  0.72143E+00  0.42104E+00
  0.95286E-02 -0.35064E+00 -0.44400E+00 -0.35122E+00 -0.19747E+00 -0.81501E-01
 -0.43601E-01  0.22870E-02  0.10613E-01  0.43210E-02  0.43211E-02  0.10613E-01
  0.22871E-02 -0.43601E-01 -0.14725E+00 -0.30465E+00 -0.44400E+00 -0.41880E+00
 -0.40184E-01  0.52651E+00  0.11391E+01  0.15595E+01  0.15595E+01  0.11391E+01
  0.52651E+00 -0.40183E-01 -0.41880E+00 -0.44400E+00 -0.30465E+00 -0.14725E+00
 -0.62882E-01  0.35455E-02  0.21782E-01  0.68567E-02  0.24752E-02  0.68569E-02
  0.21782E-01  0.35457E-02 -0.62882E-01 -0.19059E+00 -0.32124E+00 -0.35064E+00
 -0.40184E-01  0.57924E+00  0.14919E+01  0.23866E+01  0.27494E+01  0.23866E+01
  0.14919E+01  0.57924E+00 -0.40183E-01 -0.35064E+00 -0.32124E+00 -0.19059E+00
 -0.68896E-01  0.14405E-01  0.33967E-01  0.20124E-01  0.14938E-02  0.14939E-02
  0.20124E-01  0.33967E-01  0.14406E-01 -0.68896E-01 -0.15780E+00 -0.20092E+00
  0.95277E-02  0.52651E+00  0.14919E+01  0.27531E+01  0.37091E+01  0.37091E+01
  0.27531E+01  0.14919E+01  0.52651E+00  0.95283E-02 -0.20092E+00 -0.15780E+00
 -0.34897E-01  0.26269E-01  0.48124E-01  0.33158E-01  0.54551E-02 -0.36866E-02
  0.54551E-02  0.33158E-01  0.48124E-01  0.26270E-01 -0.34897E-01 -0.52618E-01
  0.55194E-01  0.42104E+00  0.11391E+01  0.23866E+01  0.37091E+01  0.43861E+01
  0.37091E+01  0.23866E+01  0.11391E+01  0.42104E+00  0.55194E-01 -0.52617E-01
  0.26730E-01  0.33540E-01  0.61018E-01  0.41660E-01  0.15215E-01 -0.76392E-02
 -0.76392E-02  0.15215E-01  0.41660E-01  0.61018E-01  0.33540E-01  0.26730E-01
  0.68832E-01  0.29494E+00  0.72142E+00  0.15595E+01  0.27494E+01  0.37091E+01
  0.37091E+01  0.27494E+01  0.15595E+01  0.72142E+00  0.29494E+00  0.68832E-01
  0.75318E-01  0.42637E-01  0.48970E-01  0.35979E-01  0.16494E-01 -0.10719E-01
 -0.15155E-01 -0.10719E-01  0.16494E-01  0.35979E-01  0.48970E-01  0.42638E-01
  0.75318E-01  0.16288E+00  0.42447E+00  0.82650E+00  0.15595E+01  0.23866E+01
  0.27531E+01  0.23866E+01  0.15595E+01  0.82650E+00  0.42447E+00  0.16288E+00
  0.10081E+00  0.47274E-01  0.24689E-01  0.15687E-01  0.50970E-03 -0.12783E-01
 -0.21206E-01 -0.21206E-01 -0.12783E-01  0.50969E-03  0.15687E-01  0.24689E-01
  0.47274E-01  0.10081E+00  0.20481E+00  0.42447E+00  0.72142E+00  0.11391E+01
  0.14919E+01  0.14919E+01  0.11391E+01  0.72142E+00  0.42447E+00  0.20481E+00
  0.10081E+00  0.48136E-01  0.12262E-01 -0.54245E-02 -0.18661E-01 -0.23360E-01
 -0.24519E-01 -0.24253E-01 -0.24519E-01 -0.23360E-01 -0.18661E-01 -0.54245E-02
  0.12262E-01  0.48136E-01  0.10081E+00  0.16288E+00  0.29494E+00  0.42104E+00
  0.52651E+00  0.57924E+00  0.52651E+00  0.42104E+00  0.29494E+00  0.16288E+00
  0.75318E-01  0.47274E-01  0.12262E-01 -0.15941E-01 -0.33807E-01 -0.31001E-01
 -0.23862E-01 -0.15895E-01 -0.15895E-01 -0.23862E-01 -0.31001E-01 -0.33807E-01
 -0.15941E-01  0.12262E-01  0.47274E-01  0.75318E-01  0.68832E-01  0.55194E-01
  0.95270E-02 -0.40185E-01 -0.40185E-01  0.95273E-02  0.55194E-01  0.68832E-01
  0.26730E-01  0.42638E-01  0.24689E-01 -0.54244E-02 -0.33807E-01 -0.31163E-01
 -0.22830E-01 -0.43603E-02 -0.14656E-02 -0.43603E-02 -0.22830E-01 -0.31163E-01
 -0.33807E-01 -0.54244E-02  0.24689E-01  0.42638E-01  0.26730E-01 -0.52618E-01
 -0.20092E+00 -0.35064E+00 -0.41880E+00 -0.35064E+00 -0.20092E+00 -0.52618E-01
 -0.34897E-01  0.33540E-01  0.48970E-01  0.15687E-01 -0.18661E-01 -0.31001E-01
 -0.22830E-01 -0.94831E-03  0.15804E-01  0.15804E-01 -0.94835E-03 -0.22830E-01
 -0.31001E-01 -0.18661E-01  0.15688E-01  0.48970E-01  0.33540E-01 -0.34897E-01
 -0.15780E+00 -0.32124E+00 -0.44400E+00 -0.44400E+00 -0.32124E+00 -0.15780E+00
 -0.68896E-01  0.26270E-01  0.61018E-01  0.35979E-01  0.50967E-03 -0.23360E-01
 -0.23862E-01 -0.43603E-02  0.15804E-01  0.30525E-01  0.15804E-01 -0.43603E-02
 -0.23862E-01 -0.23359E-01  0.50974E-03  0.35979E-01  0.61018E-01  0.26270E-01
 -0.68896E-01 -0.19059E+00 -0.30465E+00 -0.35122E+00 -0.30465E+00 -0.19059E+00
 -0.62882E-01  0.14405E-01  0.48124E-01  0.41660E-01  0.16494E-01 -0.12783E-01
 -0.24519E-01 -0.15895E-01 -0.14655E-02  0.15804E-01  0.15804E-01 -0.14656E-02
 -0.15895E-01 -0.24519E-01 -0.12783E-01  0.16494E-01  0.41660E-01  0.48124E-01
  0.14406E-01 -0.62882E-01 -0.14725E+00 -0.19747E+00 -0.19747E+00 -0.14725E+00
 -0.43601E-01  0.35455E-02  0.33967E-01  0.33158E-01  0.15215E-01 -0.10719E-01
 -0.21206E-01 -0.24253E-01 -0.15895E-01 -0.43603E-02 -0.94831E-03 -0.43603E-02
 -0.15895E-01 -0.24253E-01 -0.21206E-01 -0.10719E-01  0.15215E-01  0.33158E-01
  0.33967E-01  0.35456E-02 -0.43601E-01 -0.81501E-01 -0.96582E-01 -0.81501E-01
 -0.17399E-01  0.22870E-02  0.21782E-01  0.20124E-01  0.54549E-02 -0.76393E-02
 -0.15155E-01 -0.21206E-01 -0.24519E-01 -0.23862E-01 -0.22830E-01 -0.22830E-01