
             +---------------------------------------------------+
             |                                                   |
             |                   WANNIER90                       |
             |                                                   |
             +---------------------------------------------------+
             |                                                   |
             |        Welcome to the Maximally-Localized         |
             |        Generalized Wannier Functions code         |
             |            http://www.wannier.org                 |
             |                                                   |
             |                                                   |
             |  Wannier90 Developer Group:                       |
             |    Giovanni Pizzi    (EPFL)                       |
             |    Valerio Vitale    (Cambridge)                  |
             |    David Vanderbilt  (Rutgers University)         |
             |    Nicola Marzari    (EPFL)                       |
             |    Ivo Souza         (Universidad del Pais Vasco) |
             |    Arash A. Mostofi  (Imperial College London)    |
             |    Jonathan R. Yates (University of Oxford)       |
             |                                                   |
             |  For the full list of Wannier90 3.x authors,      |
             |  please check the code documentation and the      |
             |  README on the GitHub page of the code            |
             |                                                   |
             |                                                   |
             |  Please cite                                      |
             |                                                   |
             |  [ref] "Wannier90 as a community code:            |
             |        new features and applications",            |
             |        G. Pizzi et al., J. Phys. Cond. Matt. 32,  |
             |        165902 (2020).                             |
             |        http://doi.org/10.1088/1361-648X/ab51ff    |
             |                                                   |
             |  in any publications arising from the use of      |
             |  this code. For the method please cite            |
             |                                                   |
             |  [ref] "Maximally Localized Generalised Wannier   |
             |         Functions for Composite Energy Bands"     |
             |         N. Marzari and D. Vanderbilt              |
             |         Phys. Rev. B 56 12847 (1997)              |
             |                                                   |
             |  [ref] "Maximally Localized Wannier Functions     |
             |         for Entangled Energy Bands"               |
             |         I. Souza, N. Marzari and D. Vanderbilt    |
             |         Phys. Rev. B 65 035109 (2001)             |
             |                                                   |
             |                                                   |
             | Copyright (c) 1996-2020                           |
             |        The Wannier90 Developer Group and          |
             |        individual contributors                    |
             |                                                   |
             |      Release: 3.1.0        5th March    2020      |
             |                                                   |
             | This program is free software; you can            |
             | redistribute it and/or modify it under the terms  |
             | of the GNU General Public License as published by |
             | the Free Software Foundation; either version 2 of |
             | the License, or (at your option) any later version|
             |                                                   |
             | This program is distributed in the hope that it   |
             | will be useful, but WITHOUT ANY WARRANTY; without |
             | even the implied warranty of MERCHANTABILITY or   |
             | FITNESS FOR A PARTICULAR PURPOSE. See the GNU     |
             | General Public License for more details.          |
             |                                                   |
             | You should have received a copy of the GNU General|
             | Public License along with this program; if not,   |
             | write to the Free Software Foundation, Inc.,      |
             | 675 Mass Ave, Cambridge, MA 02139, USA.           |
             |                                                   |
             +---------------------------------------------------+
             |    Execution started on 31Jul2023 at 21:03:09     |
             +---------------------------------------------------+
 
 ******************************************************************************
 * -> Using CODATA 2006 constant values                                       *
 *    (http://physics.nist.gov/cuu/Constants/index.html)                      *
 * -> Using Bohr value from CODATA                                            *
 ******************************************************************************
 

 Running in parallel on   8 CPUs


                                    ------
                                    SYSTEM
                                    ------

                              Lattice Vectors (Ang)
                    a_1     1.434996   1.434996   1.434996
                    a_2    -1.434996   1.434996   1.434996
                    a_3    -1.434996  -1.434996   1.434996

                   Unit Cell Volume:      11.81986  (Ang^3)

                        Reciprocal-Space Vectors (Ang^-1)
                    b_1     2.189269   0.000000   2.189269
                    b_2    -2.189269   2.189269   0.000000
                    b_3     0.000000  -2.189269   2.189269
  
 *----------------------------------------------------------------------------*
 |   Site       Fractional Coordinate          Cartesian Coordinate (Ang)     |
 +----------------------------------------------------------------------------+
 | Fe   1   0.00000   0.00000   0.00000   |    0.00000   0.00000   0.00000    |
 *----------------------------------------------------------------------------*
                                ------------
                                K-POINT GRID
                                ------------
  
             Grid size =  6 x  6 x  6      Total points =  216
  
  
 *---------------------------------- MAIN ------------------------------------*
 |  Number of Wannier Functions               :                16             |
 |  Number of Objective Wannier Functions     :                16             |
 |  Number of input Bloch states              :                22             |
 |  Output verbosity (1=low, 5=high)          :                 1             |
 |  Timing Level (1=low, 5=high)              :                 1             |
 |  Optimisation (0=memory, 3=speed)          :                 3             |
 |  Length Unit                               :               Ang             |
 |  Post-processing setup (write *.nnkp)      :                 F             |
 |  Using Gamma-only branch of algorithms     :                 F             |
 *----------------------------------------------------------------------------*
 *------------------------------- WANNIERISE ---------------------------------*
 |  Total number of iterations                :              5000             |
 |  Number of CG steps before reset           :               200             |
 |  Trial step length for line search         :             2.000             |
 |  Convergence tolerence                     :         0.100E-09             |
 |  Convergence window                        :                 3             |
 |  Iterations between writing output         :                 1             |
 |  Iterations between backing up to disk     :               100             |
 |  Write r^2_nm to file                      :                 F             |
 |  Write xyz WF centres to file              :                 F             |
 |  Write on-site energies <0n|H|0n> to file  :                 F             |
 |  Use guiding centre to control phases      :                 F             |
 |  Use phases for initial projections        :                 F             |
 *----------------------------------------------------------------------------*
 *------------------------------- DISENTANGLE --------------------------------*
 |  Using band disentanglement                :                 T             |
 |  Total number of iterations                :              5000             |
 |  Mixing ratio                              :             0.500             |
 |  Convergence tolerence                     :         1.000E-10             |
 |  Convergence window                        :                 3             |
 *----------------------------------------------------------------------------*
 *-------------------------------- PLOTTING ----------------------------------*
 |  Plotting interpolated bandstructure       :                 T             |
 |   Number of K-path sections                :                 6             |
 |   Divisions along first K-path section     :               100             |
 |   Output format                            :           gnuplot             |
 |   Output mode                              :               s-k             |
 *----------------------------------------------------------------------------*
 |   K-space path sections:                                                   |
 |    From: G       0.000  0.000  0.000     To: H       0.500  0.500 -0.500   |
 |    From: H       0.500  0.500 -0.500     To: N       0.500  0.000 -0.500   |
 |    From: N       0.500  0.000 -0.500     To: G       0.000  0.000  0.000   |
 |    From: G       0.000  0.000  0.000     To: P       0.750  0.250 -0.250   |
 |    From: P       0.750  0.250 -0.250     To: H       0.500  0.500 -0.500   |
 |    From: P       0.750  0.250 -0.250     To: N       0.500  0.000 -0.500   |
 *----------------------------------------------------------------------------*
 Time to read parameters        0.044 (sec)

 *---------------------------------- K-MESH ----------------------------------*
 +----------------------------------------------------------------------------+
 |                    Distance to Nearest-Neighbour Shells                    |
 |                    ------------------------------------                    |
 |          Shell             Distance (Ang^-1)          Multiplicity         |
 |          -----             -----------------          ------------         |
 |             1                   0.516016                     12            |
 |             2                   0.729756                      6            |
 |             3                   0.893765                     24            |
 |             4                   1.032031                     12            |
 |             5                   1.153846                     24            |
 |             6                   1.263975                      8            |
 |             7                   1.365249                     48            |
 |             8                   1.459513                      6            |
 |             9                   1.548047                     36            |
 |            10                   1.631785                     24            |
 |            11                   1.711430                     24            |
 |            12                   1.787531                     24            |
 |            13                   1.860521                     72            |
 |            14                   1.998520                     48            |
 |            15                   2.064062                     12            |
 |            16                   2.127587                     48            |
 |            17                   2.189269                     30            |
 |            18                   2.249260                     72            |
 |            19                   2.307692                     24            |
 |            20                   2.364681                     48            |
 |            21                   2.420328                     24            |
 |            22                   2.474724                     48            |
 |            23                   2.527950                      8            |
 |            24                   2.580078                     84            |
 |            25                   2.631174                     24            |
 |            26                   2.681296                     96            |
 |            27                   2.730498                     48            |
 |            28                   2.778829                     24            |
 |            29                   2.873053                     96            |
 |            30                   2.919025                      6            |
 |            31                   2.964284                     96            |
 |            32                   3.008862                     48            |
 |            33                   3.052790                     48            |
 |            34                   3.096094                     36            |
 |            35                   3.138800                    120            |
 |            36                   3.180934                     24            |
 +----------------------------------------------------------------------------+
 | The b-vectors are chosen automatically                                     |
 | The following shells are used:   1                                         |
 +----------------------------------------------------------------------------+
 |                        Shell   # Nearest-Neighbours                        |
 |                        -----   --------------------                        |
 |                          1              12                                 |
 +----------------------------------------------------------------------------+
 | Completeness relation is fully satisfied [Eq. (B1), PRB 56, 12847 (1997)]  |
 +----------------------------------------------------------------------------+
 |                  b_k Vectors (Ang^-1) and Weights (Ang^2)                  |
 |                  ----------------------------------------                  |
 |            No.         b_k(x)      b_k(y)      b_k(z)        w_b           |
 |            ---        --------------------------------     --------        |
 |             1         0.000000   -0.364878    0.364878     0.938889        |
 |             2        -0.364878    0.364878    0.000000     0.938889        |
 |             3        -0.364878    0.000000    0.364878     0.938889        |
 |             4         0.364878    0.000000    0.364878     0.938889        |
 |             5         0.000000    0.364878    0.364878     0.938889        |
 |             6         0.000000    0.364878   -0.364878     0.938889        |
 |             7         0.364878    0.364878    0.000000     0.938889        |
 |             8         0.364878   -0.364878    0.000000     0.938889        |
 |             9         0.364878    0.000000   -0.364878     0.938889        |
 |            10        -0.364878    0.000000   -0.364878     0.938889        |
 |            11        -0.364878   -0.364878    0.000000     0.938889        |
 |            12         0.000000   -0.364878   -0.364878     0.938889        |
 +----------------------------------------------------------------------------+
 |                           b_k Directions (Ang^-1)                          |
 |                           -----------------------                          |
 |            No.           x           y           z                         |
 |            ---        --------------------------------                     |
 |             1         0.000000   -0.364878    0.364878                     |
 |             2        -0.364878    0.364878    0.000000                     |
 |             3        -0.364878    0.000000    0.364878                     |
 |             4         0.364878    0.000000    0.364878                     |
 |             5         0.000000    0.364878    0.364878                     |
 |             6         0.364878    0.364878    0.000000                     |
 +----------------------------------------------------------------------------+
  
 Time to get kmesh              1.438 (sec)
 *============================================================================*
 |                              MEMORY ESTIMATE                               |
 |         Maximum RAM allocated during each phase of the calculation         |
 *============================================================================*
 |                        Disentanglement           32.66 Mb                  |
 |                            Wannierise:           26.55 Mb                  |
 |                          plot_wannier:           26.55 Mb                  |
 *----------------------------------------------------------------------------*
  
 Starting a new Wannier90 calculation ...


 Reading overlaps from Fe.mmn    :  Created on 31Jul2023 at 21: 3: 0

 Reading projections from Fe.amn :  Created on 31Jul2023 at 21: 2:53

 Time to read overlaps          1.041 (sec)

 *------------------------------- DISENTANGLE --------------------------------*
 +----------------------------------------------------------------------------+
 |                              Energy  Windows                               |
 |                              ---------------                               |
 |                   Outer:    8.87374  to   53.08366  (eV)                   |
 |                   Inner:    8.87374  to   23.00000  (eV)                   |
 +----------------------------------------------------------------------------+
   Number of target bands to extract:   16

                   Unitarised projection of Wannier functions                  
                   ------------------------------------------                  
   A_mn = <psi_m|g_n> --> S = A.A^+ --> U = S^-1/2.A
   In dis_project... done
   Using an inner window (linner = T)
   In dis_proj_froz... done

                   Extraction of optimally-connected subspace                  
                   ------------------------------------------                  
 +---------------------------------------------------------------------+<-- DIS
 |  Iter     Omega_I(i-1)      Omega_I(i)      Delta (frac.)    Time   |<-- DIS
 +---------------------------------------------------------------------+<-- DIS
       1      17.78085951      17.41216973       2.117E-02      0.00    <-- DIS
       2      17.51268103      16.97475892       3.169E-02      0.01    <-- DIS
       3      17.09385869      15.99670035       6.859E-02      0.01    <-- DIS
       4      16.41647440      15.40153919       6.590E-02      0.02    <-- DIS
       5      15.78318273      14.61783139       7.972E-02      0.03    <-- DIS
       6      15.07261358      13.94888983       8.056E-02      0.04    <-- DIS
       7      14.41363320      13.41707540       7.428E-02      0.04    <-- DIS
       8      13.82545563      12.96154641       6.665E-02      0.05    <-- DIS
       9      13.31290698      12.29560481       8.274E-02      0.06    <-- DIS
      10      12.72387933      11.86165858       7.269E-02      0.06    <-- DIS
      11      12.27293863      11.72938608       4.634E-02      0.07    <-- DIS
      12      11.99162530      11.65143535       2.920E-02      0.08    <-- DIS
      13      11.81673215      11.59571576       1.906E-02      0.09    <-- DIS
      14      11.70386109      11.55275783       1.308E-02      0.09    <-- DIS
      15      11.62730326      11.51819705       9.473E-03      0.10    <-- DIS
      16      11.57253265      11.48963616       7.215E-03      0.11    <-- DIS
      17      11.53133526      11.46561425       5.732E-03      0.11    <-- DIS
      18      11.49900355      11.44516489       4.704E-03      0.12    <-- DIS
      19      11.47277273      11.42760163       3.953E-03      0.13    <-- DIS
      20      11.45095923      11.41240752       3.378E-03      0.13    <-- DIS
      21      11.43248865      11.39917631       2.922E-03      0.14    <-- DIS
      22      11.41663730      11.38757963       2.552E-03      0.15    <-- DIS
      23      11.40289040      11.37734758       2.245E-03      0.15    <-- DIS
      24      11.39086345      11.36825625       1.989E-03      0.16    <-- DIS
      25      11.38025777      11.36011891       1.773E-03      0.17    <-- DIS
      26      11.37083462      11.35277945       1.590E-03      0.17    <-- DIS
      27      11.36239940      11.34610717       1.436E-03      0.18    <-- DIS
      28      11.35479145      11.33999262       1.305E-03      0.19    <-- DIS
      29      11.34787709      11.33434404       1.194E-03      0.19    <-- DIS
      30      11.34154453      11.32908457       1.100E-03      0.20    <-- DIS
      31      11.33570004      11.32414977       1.020E-03      0.21    <-- DIS
      32      11.33026493      11.31948571       9.523E-04      0.21    <-- DIS
      33      11.32517303      11.31504724       8.949E-04      0.22    <-- DIS
      34      11.32036875      11.31079662       8.463E-04      0.23    <-- DIS
      35      11.31580541      11.30670234       8.051E-04      0.24    <-- DIS
      36      11.31144378      11.30273818       7.702E-04      0.24    <-- DIS
      37      11.30725104      11.29888237       7.407E-04      0.25    <-- DIS
      38      11.30319968      11.29511692       7.156E-04      0.26    <-- DIS
      39      11.29926678      11.29142703       6.943E-04      0.26    <-- DIS
      40      11.29543330      11.28780063       6.762E-04      0.27    <-- DIS
      41      11.29168347      11.28422796       6.607E-04      0.28    <-- DIS
      42      11.28800435      11.28070126       6.474E-04      0.28    <-- DIS
      43      11.28438541      11.27721447       6.359E-04      0.29    <-- DIS
      44      11.28081818      11.27376300       6.258E-04      0.30    <-- DIS
      45      11.27729599      11.27034354       6.169E-04      0.30    <-- DIS
      46      11.27381369      11.26695387       6.088E-04      0.31    <-- DIS
      47      11.27036750      11.26359275       6.015E-04      0.32    <-- DIS
      48      11.26695478      11.26025976       5.946E-04      0.32    <-- DIS
      49      11.26357391      11.25695519       5.880E-04      0.33    <-- DIS
      50      11.26022415      11.25367991       5.815E-04      0.34    <-- DIS
      51      11.25690549      11.25043530       5.751E-04      0.35    <-- DIS
      52      11.25361853      11.24722310       5.686E-04      0.35    <-- DIS
      53      11.25036439      11.24404530       5.620E-04      0.36    <-- DIS
      54      11.24714457      11.24090411       5.552E-04      0.37    <-- DIS
      55      11.24396085      11.23780180       5.481E-04      0.37    <-- DIS
      56      11.24081521      11.23474069       5.407E-04      0.38    <-- DIS
      57      11.23770975      11.23172305       5.330E-04      0.39    <-- DIS
      58      11.23464659      11.22875109       5.250E-04      0.39    <-- DIS
      59      11.23162787      11.22582688       5.168E-04      0.40    <-- DIS
      60      11.22865562      11.22295238       5.082E-04      0.41    <-- DIS
      61      11.22573181      11.22012936       4.993E-04      0.41    <-- DIS
      62      11.22285828      11.21735946       4.902E-04      0.42    <-- DIS
      63      11.22003672      11.21464411       4.809E-04      0.43    <-- DIS
      64      11.21726865      11.21198459       4.713E-04      0.43    <-- DIS
      65      11.21455545      11.20938196       4.615E-04      0.44    <-- DIS
      66      11.21189831      11.20683714       4.516E-04      0.45    <-- DIS
      67      11.20929826      11.20435084       4.416E-04      0.46    <-- DIS
      68      11.20675614      11.20192361       4.314E-04      0.46    <-- DIS
      69      11.20427264      11.19955582       4.212E-04      0.47    <-- DIS
      70      11.20184824      11.19724768       4.109E-04      0.48    <-- DIS
      71      11.19948329      11.19499921       4.005E-04      0.48    <-- DIS
      72      11.19717796      11.19281033       3.902E-04      0.49    <-- DIS
      73      11.19493226      11.19068076       3.799E-04      0.50    <-- DIS
      74      11.19274606      11.18861012       3.697E-04      0.50    <-- DIS
      75      11.19061908      11.18659787       3.595E-04      0.51    <-- DIS
      76      11.18855091      11.18464339       3.494E-04      0.52    <-- DIS
      77      11.18654100      11.18274591       3.394E-04      0.52    <-- DIS
      78      11.18458872      11.18090459       3.295E-04      0.53    <-- DIS
      79      11.18269329      11.17911848       3.198E-04      0.54    <-- DIS
      80      11.18085386      11.17738658       3.102E-04      0.55    <-- DIS
      81      11.17906950      11.17570778       3.008E-04      0.55    <-- DIS
      82      11.17733917      11.17408094       2.916E-04      0.56    <-- DIS
      83      11.17566178      11.17250486       2.826E-04      0.57    <-- DIS
      84      11.17403620      11.17097830       2.737E-04      0.57    <-- DIS
      85      11.17246122      11.16949997       2.651E-04      0.58    <-- DIS
      86      11.17093561      11.16806858       2.567E-04      0.59    <-- DIS
      87      11.16945808      11.16668280       2.485E-04      0.59    <-- DIS
      88      11.16802735      11.16534130       2.406E-04      0.60    <-- DIS
      89      11.16664209      11.16404272       2.328E-04      0.61    <-- DIS
      90      11.16530098      11.16278573       2.253E-04      0.61    <-- DIS
      91      11.16400267      11.16156898       2.180E-04      0.62    <-- DIS
      92      11.16274583      11.16039113       2.110E-04      0.63    <-- DIS
      93      11.16152912      11.15925088       2.042E-04      0.64    <-- DIS
      94      11.16035122      11.15814690       1.976E-04      0.64    <-- DIS
      95      11.15921081      11.15707791       1.912E-04      0.65    <-- DIS
      96      11.15810658      11.15604265       1.850E-04      0.66    <-- DIS
      97      11.15703727      11.15503988       1.791E-04      0.66    <-- DIS
      98      11.15600161      11.15406837       1.733E-04      0.67    <-- DIS
      99      11.15499835      11.15312694       1.678E-04      0.68    <-- DIS
     100      11.15402631      11.15221443       1.625E-04      0.68    <-- DIS
     101      11.15308428      11.15132971       1.573E-04      0.69    <-- DIS
     102      11.15217111      11.15047168       1.524E-04      0.70    <-- DIS
     103      11.15128568      11.14963926       1.477E-04      0.70    <-- DIS
     104      11.15042689      11.14883142       1.431E-04      0.71    <-- DIS
     105      11.14959368      11.14804716       1.387E-04      0.72    <-- DIS
     106      11.14878501      11.14728550       1.345E-04      0.72    <-- DIS
     107      11.14799989      11.14654550       1.305E-04      0.73    <-- DIS
     108      11.14723733      11.14582624       1.266E-04      0.74    <-- DIS
     109      11.14649641      11.14512685       1.229E-04      0.74    <-- DIS
     110      11.14577620      11.14444648       1.193E-04      0.75    <-- DIS
     111      11.14507585      11.14378431       1.159E-04      0.76    <-- DIS
     112      11.14439449      11.14313954       1.126E-04      0.77    <-- DIS
     113      11.14373130      11.14251142       1.095E-04      0.77    <-- DIS
     114      11.14308551      11.14189921       1.065E-04      0.78    <-- DIS
     115      11.14245636      11.14130221       1.036E-04      0.79    <-- DIS
     116      11.14184310      11.14071973       1.008E-04      0.79    <-- DIS
     117      11.14124503      11.14015113       9.819E-05      0.80    <-- DIS
     118      11.14066148      11.13959576       9.567E-05      0.81    <-- DIS
     119      11.14009179      11.13905304       9.325E-05      0.81    <-- DIS
     120      11.13953533      11.13852236       9.094E-05      0.82    <-- DIS
     121      11.13899151      11.13800319       8.873E-05      0.83    <-- DIS
     122      11.13845973      11.13749497       8.662E-05      0.83    <-- DIS
     123      11.13793944      11.13699720       8.461E-05      0.84    <-- DIS
     124      11.13743011      11.13650937       8.268E-05      0.85    <-- DIS
     125      11.13693121      11.13603100       8.084E-05      0.85    <-- DIS
     126      11.13644224      11.13556164       7.908E-05      0.86    <-- DIS
     127      11.13596274      11.13510085       7.740E-05      0.87    <-- DIS
     128      11.13549223      11.13464819       7.580E-05      0.88    <-- DIS
     129      11.13503029      11.13420327       7.428E-05      0.88    <-- DIS
     130      11.13457648      11.13376568       7.282E-05      0.89    <-- DIS
     131      11.13413039      11.13333506       7.144E-05      0.90    <-- DIS
     132      11.13369163      11.13291102       7.012E-05      0.90    <-- DIS
     133      11.13325983      11.13249323       6.886E-05      0.91    <-- DIS
     134      11.13283461      11.13208135       6.767E-05      0.92    <-- DIS
     135      11.13241563      11.13167505       6.653E-05      0.92    <-- DIS
     136      11.13200254      11.13127401       6.545E-05      0.93    <-- DIS
     137      11.13159503      11.13087794       6.442E-05      0.94    <-- DIS
     138      11.13119278      11.13048653       6.345E-05      0.94    <-- DIS
     139      11.13079547      11.13009952       6.253E-05      0.95    <-- DIS
     140      11.13040283      11.12971662       6.166E-05      0.96    <-- DIS
     141      11.13001457      11.12933757       6.083E-05      0.96    <-- DIS
     142      11.12963041      11.12896212       6.005E-05      0.97    <-- DIS
     143      11.12925009      11.12859003       5.931E-05      0.98    <-- DIS
     144      11.12887336      11.12822104       5.862E-05      0.99    <-- DIS
     145      11.12849997      11.12785494       5.797E-05      0.99    <-- DIS
     146      11.12812967      11.12749149       5.735E-05      1.00    <-- DIS
     147      11.12776224      11.12713048       5.678E-05      1.01    <-- DIS
     148      11.12739746      11.12677171       5.624E-05      1.01    <-- DIS
     149      11.12703510      11.12641495       5.574E-05      1.02    <-- DIS
     150      11.12667495      11.12606002       5.527E-05      1.03    <-- DIS
     151      11.12631681      11.12570672       5.484E-05      1.03    <-- DIS
     152      11.12596047      11.12535486       5.443E-05      1.04    <-- DIS
     153      11.12560575      11.12500426       5.407E-05      1.05    <-- DIS
     154      11.12525245      11.12465474       5.373E-05      1.06    <-- DIS
     155      11.12490039      11.12430612       5.342E-05      1.06    <-- DIS
     156      11.12454938      11.12395823       5.314E-05      1.07    <-- DIS
     157      11.12419926      11.12361091       5.289E-05      1.08    <-- DIS
     158      11.12384985      11.12326398       5.267E-05      1.08    <-- DIS
     159      11.12350098      11.12291730       5.248E-05      1.09    <-- DIS
     160      11.12315249      11.12257070       5.231E-05      1.10    <-- DIS
     161      11.12280421      11.12222403       5.216E-05      1.10    <-- DIS
     162      11.12245599      11.12187713       5.205E-05      1.11    <-- DIS
     163      11.12210768      11.12152987       5.195E-05      1.12    <-- DIS
     164      11.12175912      11.12118208       5.189E-05      1.12    <-- DIS
     165      11.12141016      11.12083364       5.184E-05      1.13    <-- DIS
     166      11.12106065      11.12048439       5.182E-05      1.14    <-- DIS
     167      11.12071046      11.12013420       5.182E-05      1.15    <-- DIS
     168      11.12035943      11.11978292       5.185E-05      1.15    <-- DIS
     169      11.12000743      11.11943043       5.189E-05      1.16    <-- DIS
     170      11.11965432      11.11907658       5.196E-05      1.17    <-- DIS
     171      11.11929996      11.11872125       5.205E-05      1.17    <-- DIS
     172      11.11894422      11.11836430       5.216E-05      1.18    <-- DIS
     173      11.11858696      11.11800560       5.229E-05      1.19    <-- DIS
     174      11.11822804      11.11764502       5.244E-05      1.19    <-- DIS
     175      11.11786734      11.11728243       5.261E-05      1.20    <-- DIS
     176      11.11750473      11.11691770       5.280E-05      1.21    <-- DIS
     177      11.11714007      11.11655071       5.302E-05      1.21    <-- DIS
     178      11.11677324      11.11618132       5.325E-05      1.22    <-- DIS
     179      11.11640410      11.11580942       5.350E-05      1.23    <-- DIS
     180      11.11603254      11.11543487       5.377E-05      1.23    <-- DIS
     181      11.11565842      11.11505755       5.406E-05      1.24    <-- DIS
     182      11.11528161      11.11467733       5.437E-05      1.25    <-- DIS
     183      11.11490199      11.11429410       5.470E-05      1.26    <-- DIS
     184      11.11451944      11.11390771       5.504E-05      1.26    <-- DIS
     185      11.11413382      11.11351805       5.541E-05      1.27    <-- DIS
     186      11.11374501      11.11312500       5.579E-05      1.28    <-- DIS
     187      11.11335289      11.11272842       5.619E-05      1.28    <-- DIS
     188      11.11295732      11.11232819       5.662E-05      1.29    <-- DIS
     189      11.11255818      11.11192418       5.706E-05      1.30    <-- DIS
     190      11.11215535      11.11151627       5.751E-05      1.30    <-- DIS
     191      11.11174869      11.11110433       5.799E-05      1.31    <-- DIS
     192      11.11133808      11.11068823       5.849E-05      1.32    <-- DIS
     193      11.11092339      11.11026784       5.900E-05      1.32    <-- DIS
     194      11.11050449      11.10984303       5.954E-05      1.33    <-- DIS
     195      11.11008125      11.10941368       6.009E-05      1.34    <-- DIS
     196      11.10965354      11.10897964       6.066E-05      1.34    <-- DIS
     197      11.10922123      11.10854080       6.125E-05      1.35    <-- DIS
     198      11.10878419      11.10809701       6.186E-05      1.36    <-- DIS
     199      11.10834228      11.10764814       6.249E-05      1.37    <-- DIS
     200      11.10789537      11.10719406       6.314E-05      1.37    <-- DIS
     201      11.10744332      11.10673463       6.381E-05      1.38    <-- DIS
     202      11.10698600      11.10626971       6.449E-05      1.39    <-- DIS
     203      11.10652327      11.10579916       6.520E-05      1.39    <-- DIS
     204      11.10605500      11.10532285       6.593E-05      1.40    <-- DIS
     205      11.10558103      11.10484062       6.667E-05      1.41    <-- DIS
     206      11.10510123      11.10435234       6.744E-05      1.41    <-- DIS
     207      11.10461546      11.10385786       6.823E-05      1.42    <-- DIS
     208      11.10412357      11.10335704       6.904E-05      1.43    <-- DIS
     209      11.10362542      11.10284973       6.986E-05      1.43    <-- DIS
     210      11.10312085      11.10233577       7.071E-05      1.44    <-- DIS
     211      11.10260973      11.10181502       7.158E-05      1.45    <-- DIS
     212      11.10209188      11.10128732       7.247E-05      1.46    <-- DIS
     213      11.10156718      11.10075252       7.339E-05      1.46    <-- DIS
     214      11.10103545      11.10021045       7.432E-05      1.47    <-- DIS
     215      11.10049655      11.09966097       7.528E-05      1.48    <-- DIS
     216      11.09995031      11.09910391       7.626E-05      1.48    <-- DIS
     217      11.09939658      11.09853910       7.726E-05      1.49    <-- DIS
     218      11.09883519      11.09796638       7.829E-05      1.50    <-- DIS
     219      11.09826597      11.09738559       7.933E-05      1.50    <-- DIS
     220      11.09768877      11.09679655       8.040E-05      1.51    <-- DIS
     221      11.09710341      11.09619909       8.150E-05      1.52    <-- DIS
     222      11.09650972      11.09559305       8.262E-05      1.52    <-- DIS
     223      11.09590753      11.09497824       8.376E-05      1.53    <-- DIS
     224      11.09529667      11.09435448       8.493E-05      1.54    <-- DIS
     225      11.09467695      11.09372159       8.612E-05      1.55    <-- DIS
     226      11.09404821      11.09307940       8.733E-05      1.55    <-- DIS
     227      11.09341024      11.09242772       8.858E-05      1.56    <-- DIS
     228      11.09276288      11.09176636       8.984E-05      1.57    <-- DIS
     229      11.09210594      11.09109513       9.114E-05      1.57    <-- DIS
     230      11.09143922      11.09041384       9.246E-05      1.58    <-- DIS
     231      11.09076255      11.08972229       9.380E-05      1.59    <-- DIS
     232      11.09007571      11.08902029       9.518E-05      1.59    <-- DIS
     233      11.08937853      11.08830765       9.658E-05      1.60    <-- DIS
     234      11.08867080      11.08758415       9.801E-05      1.61    <-- DIS
     235      11.08795232      11.08684960       9.946E-05      1.62    <-- DIS
     236      11.08722289      11.08610379       1.009E-04      1.62    <-- DIS
     237      11.08648231      11.08534652       1.025E-04      1.63    <-- DIS
     238      11.08573037      11.08457757       1.040E-04      1.64    <-- DIS
     239      11.08496686      11.08379674       1.056E-04      1.64    <-- DIS
     240      11.08419157      11.08300380       1.072E-04      1.65    <-- DIS
     241      11.08340429      11.08219856       1.088E-04      1.66    <-- DIS
     242      11.08260480      11.08138077       1.105E-04      1.66    <-- DIS
     243      11.08179290      11.08055024       1.121E-04      1.67    <-- DIS
     244      11.08096835      11.07970674       1.139E-04      1.68    <-- DIS
     245      11.08013095      11.07885004       1.156E-04      1.68    <-- DIS
     246      11.07928046      11.07797992       1.174E-04      1.69    <-- DIS
     247      11.07841667      11.07709615       1.192E-04      1.70    <-- DIS
     248      11.07753935      11.07619851       1.211E-04      1.70    <-- DIS
     249      11.07664827      11.07528678       1.229E-04      1.71    <-- DIS
     250      11.07574321      11.07436071       1.248E-04      1.72    <-- DIS
     251      11.07482394      11.07342009       1.268E-04      1.73    <-- DIS
     252      11.07389023      11.07246467       1.287E-04      1.73    <-- DIS
     253      11.07294185      11.07149423       1.308E-04      1.74    <-- DIS
     254      11.07197857      11.07050854       1.328E-04      1.75    <-- DIS
     255      11.07100015      11.06950736       1.349E-04      1.75    <-- DIS
     256      11.07000636      11.06849046       1.370E-04      1.76    <-- DIS
     257      11.06899698      11.06745761       1.391E-04      1.77    <-- DIS
     258      11.06797177      11.06640857       1.413E-04      1.77    <-- DIS
     259      11.06693049      11.06534312       1.435E-04      1.78    <-- DIS
     260      11.06587292      11.06426102       1.457E-04      1.79    <-- DIS
     261      11.06479883      11.06316205       1.479E-04      1.79    <-- DIS
     262      11.06370798      11.06204596       1.502E-04      1.80    <-- DIS
     263      11.06260014      11.06091255       1.526E-04      1.81    <-- DIS
     264      11.06147509      11.05976157       1.549E-04      1.81    <-- DIS
     265      11.06033260      11.05859281       1.573E-04      1.82    <-- DIS
     266      11.05917245      11.05740605       1.597E-04      1.83    <-- DIS
     267      11.05799442      11.05620106       1.622E-04      1.83    <-- DIS
     268      11.05679828      11.05497763       1.647E-04      1.84    <-- DIS
     269      11.05558382      11.05373555       1.672E-04      1.85    <-- DIS
     270      11.05435082      11.05247461       1.698E-04      1.86    <-- DIS
     271      11.05309908      11.05119460       1.723E-04      1.86    <-- DIS
     272      11.05182838      11.04989533       1.749E-04      1.87    <-- DIS
     273      11.05053853      11.04857658       1.776E-04      1.88    <-- DIS
     274      11.04922932      11.04723818       1.802E-04      1.88    <-- DIS
     275      11.04790056      11.04587994       1.829E-04      1.89    <-- DIS
     276      11.04655207      11.04450167       1.856E-04      1.90    <-- DIS
     277      11.04518365      11.04310320       1.884E-04      1.90    <-- DIS
     278      11.04379514      11.04168436       1.912E-04      1.91    <-- DIS
     279      11.04238636      11.04024498       1.940E-04      1.92    <-- DIS
     280      11.04095714      11.03878492       1.968E-04      1.92    <-- DIS
     281      11.03950732      11.03730402       1.996E-04      1.93    <-- DIS
     282      11.03803676      11.03580213       2.025E-04      1.94    <-- DIS
     283      11.03654530      11.03427914       2.054E-04      1.94    <-- DIS
     284      11.03503282      11.03273491       2.083E-04      1.95    <-- DIS
     285      11.03349918      11.03116932       2.112E-04      1.96    <-- DIS
     286      11.03194427      11.02958226       2.142E-04      1.96    <-- DIS
     287      11.03036796      11.02797364       2.171E-04      1.97    <-- DIS
     288      11.02877016      11.02634337       2.201E-04      1.98    <-- DIS
     289      11.02715077      11.02469137       2.231E-04      1.99    <-- DIS
     290      11.02550971      11.02301755       2.261E-04      1.99    <-- DIS
     291      11.02384690      11.02132187       2.291E-04      2.00    <-- DIS
     292      11.02216227      11.01960427       2.321E-04      2.01    <-- DIS
     293      11.02045578      11.01786471       2.352E-04      2.01    <-- DIS
     294      11.01872737      11.01610315       2.382E-04      2.02    <-- DIS
     295      11.01697700      11.01431958       2.413E-04      2.03    <-- DIS
     296      11.01520466      11.01251398       2.443E-04      2.03    <-- DIS
     297      11.01341031      11.01068635       2.474E-04      2.04    <-- DIS
     298      11.01159397      11.00883670       2.505E-04      2.05    <-- DIS
     299      11.00975563      11.00696505       2.535E-04      2.06    <-- DIS
     300      11.00789530      11.00507142       2.566E-04      2.06    <-- DIS
     301      11.00601302      11.00315586       2.597E-04      2.07    <-- DIS
     302      11.00410881      11.00121840       2.627E-04      2.08    <-- DIS
     303      11.00218271      10.99925912       2.658E-04      2.08    <-- DIS
     304      11.00023479      10.99727806       2.689E-04      2.09    <-- DIS
     305      10.99826509      10.99527532       2.719E-04      2.10    <-- DIS
     306      10.99627370      10.99325096       2.750E-04      2.10    <-- DIS
     307      10.99426068      10.99120508       2.780E-04      2.11    <-- DIS
     308      10.99222614      10.98913778       2.810E-04      2.12    <-- DIS
     309      10.99017015      10.98704916       2.841E-04      2.13    <-- DIS
     310      10.98809284      10.98493933       2.871E-04      2.13    <-- DIS
     311      10.98599429      10.98280842       2.901E-04      2.14    <-- DIS
     312      10.98387464      10.98065654       2.931E-04      2.15    <-- DIS
     313      10.98173400      10.97848382       2.960E-04      2.15    <-- DIS
     314      10.97957250      10.97629041       2.990E-04      2.16    <-- DIS
     315      10.97739028      10.97407643       3.020E-04      2.17    <-- DIS
     316      10.97518746      10.97184203       3.049E-04      2.17    <-- DIS
     317      10.97296420      10.96958736       3.078E-04      2.18    <-- DIS
     318      10.97072064      10.96731255       3.107E-04      2.19    <-- DIS
     319      10.96845692      10.96501777       3.136E-04      2.19    <-- DIS
     320      10.96617319      10.96270317       3.165E-04      2.20    <-- DIS
     321      10.96386962      10.96036889       3.194E-04      2.21    <-- DIS
     322      10.96154635      10.95801509       3.223E-04      2.21    <-- DIS
     323      10.95920353      10.95564193       3.251E-04      2.22    <-- DIS
     324      10.95684134      10.95324956       3.279E-04      2.23    <-- DIS
     325      10.95445991      10.95083814       3.307E-04      2.23    <-- DIS
     326      10.95205942      10.94840783       3.335E-04      2.24    <-- DIS
     327      10.94964002      10.94595877       3.363E-04      2.25    <-- DIS
     328      10.94720186      10.94349112       3.391E-04      2.26    <-- DIS
     329      10.94474509      10.94100503       3.418E-04      2.26    <-- DIS
     330      10.94226989      10.93850066       3.446E-04      2.27    <-- DIS
     331      10.93977640      10.93597816       3.473E-04      2.28    <-- DIS
     332      10.93726477      10.93343767       3.500E-04      2.28    <-- DIS
     333      10.93473516      10.93087936       3.527E-04      2.29    <-- DIS
     334      10.93218772      10.92830336       3.554E-04      2.30    <-- DIS
     335      10.92962260      10.92570984       3.581E-04      2.30    <-- DIS
     336      10.92703996      10.92309894       3.608E-04      2.31    <-- DIS
     337      10.92443996      10.92047082       3.635E-04      2.32    <-- DIS
     338      10.92182274      10.91782564       3.661E-04      2.32    <-- DIS
     339      10.91918847      10.91516355       3.687E-04      2.33    <-- DIS
     340      10.91653729      10.91248471       3.714E-04      2.34    <-- DIS
     341      10.91386939      10.90978930       3.740E-04      2.35    <-- DIS
     342      10.91118491      10.90707749       3.766E-04      2.35    <-- DIS
     343      10.90848404      10.90434947       3.792E-04      2.36    <-- DIS
     344      10.90576696      10.90160541       3.817E-04      2.37    <-- DIS
     345      10.90303385      10.89884553       3.843E-04      2.37    <-- DIS
     346      10.90028490      10.89607003       3.868E-04      2.38    <-- DIS
     347      10.89752033      10.89327915       3.893E-04      2.39    <-- DIS
     348      10.89474035      10.89047311       3.918E-04      2.39    <-- DIS
     349      10.89194519      10.88765217       3.943E-04      2.40    <-- DIS
     350      10.88913510      10.88481661       3.967E-04      2.41    <-- DIS
     351      10.88631034      10.88196671       3.992E-04      2.41    <-- DIS
     352      10.88347119      10.87910280       4.015E-04      2.42    <-- DIS
     353      10.88061794      10.87622521       4.039E-04      2.43    <-- DIS
     354      10.87775094      10.87333428       4.062E-04      2.43    <-- DIS
     355      10.87487050      10.87043042       4.085E-04      2.44    <-- DIS
     356      10.87197702      10.86751404       4.107E-04      2.45    <-- DIS
     357      10.86907087      10.86458556       4.128E-04      2.46    <-- DIS
     358      10.86615248      10.86164547       4.149E-04      2.46    <-- DIS
     359      10.86322230      10.85869427       4.170E-04      2.47    <-- DIS
     360      10.86028081      10.85573248       4.190E-04      2.48    <-- DIS
     361      10.85732853      10.85276068       4.209E-04      2.48    <-- DIS
     362      10.85436599      10.84977946       4.227E-04      2.49    <-- DIS
     363      10.85139376      10.84678945       4.245E-04      2.50    <-- DIS
     364      10.84841247      10.84379132       4.262E-04      2.50    <-- DIS
     365      10.84542274      10.84078577       4.277E-04      2.51    <-- DIS
     366      10.84242525      10.83777353       4.292E-04      2.52    <-- DIS
     367      10.83942071      10.83475537       4.306E-04      2.52    <-- DIS
     368      10.83640985      10.83173208       4.319E-04      2.53    <-- DIS
     369      10.83339346      10.82870449       4.330E-04      2.54    <-- DIS
     370      10.83037232      10.82567345       4.340E-04      2.55    <-- DIS
     371      10.82734728      10.82263986       4.350E-04      2.55    <-- DIS
     372      10.82431920      10.81960463       4.357E-04      2.56    <-- DIS
     373      10.82128897      10.81656869       4.364E-04      2.57    <-- DIS
     374      10.81825749      10.81353300       4.369E-04      2.57    <-- DIS
     375      10.81522572      10.81049855       4.373E-04      2.58    <-- DIS
     376      10.81219460      10.80746632       4.375E-04      2.59    <-- DIS
     377      10.80916513      10.80443732       4.376E-04      2.59    <-- DIS
     378      10.80613828      10.80141259       4.375E-04      2.60    <-- DIS
     379      10.80311508      10.79839316       4.373E-04      2.61    <-- DIS
     380      10.80009654      10.79538006       4.369E-04      2.61    <-- DIS
     381      10.79708370      10.79237434       4.364E-04      2.62    <-- DIS
     382      10.79407758      10.78937704       4.357E-04      2.63    <-- DIS
     383      10.79107922      10.78638921       4.348E-04      2.64    <-- DIS
     384      10.78808966      10.78341188       4.338E-04      2.64    <-- DIS
     385      10.78510994      10.78044607       4.326E-04      2.65    <-- DIS
     386      10.78214108      10.77749281       4.313E-04      2.66    <-- DIS
     387      10.77918410      10.77455310       4.298E-04      2.66    <-- DIS
     388      10.77624000      10.77162793       4.282E-04      2.67    <-- DIS
     389      10.77330979      10.76871826       4.264E-04      2.68    <-- DIS
     390      10.77039442      10.76582505       4.244E-04      2.68    <-- DIS
     391      10.76749487      10.76294920       4.223E-04      2.69    <-- DIS
     392      10.76461206      10.76009163       4.201E-04      2.70    <-- DIS
     393      10.76174690      10.75725320       4.177E-04      2.70    <-- DIS
     394      10.75890028      10.75443475       4.152E-04      2.71    <-- DIS
     395      10.75607305      10.75163709       4.126E-04      2.72    <-- DIS
     396      10.75326603      10.74886099       4.098E-04      2.73    <-- DIS
     397      10.75048003      10.74610720       4.069E-04      2.73    <-- DIS
     398      10.74771580      10.74337643       4.039E-04      2.74    <-- DIS
     399      10.74497407      10.74066935       4.008E-04      2.75    <-- DIS
     400      10.74225553      10.73798658       3.976E-04      2.75    <-- DIS
     401      10.73956084      10.73532874       3.942E-04      2.76    <-- DIS
     402      10.73689062      10.73269638       3.908E-04      2.77    <-- DIS
     403      10.73424545      10.73009002       3.873E-04      2.77    <-- DIS
     404      10.73162589      10.72751015       3.837E-04      2.78    <-- DIS
     405      10.72903243      10.72495722       3.800E-04      2.79    <-- DIS
     406      10.72646555      10.72243163       3.762E-04      2.79    <-- DIS
     407      10.72392567      10.71993376       3.724E-04      2.80    <-- DIS
     408      10.72141321      10.71746393       3.685E-04      2.81    <-- DIS
     409      10.71892851      10.71502246       3.645E-04      2.81    <-- DIS
     410      10.71647190      10.71260960       3.605E-04      2.82    <-- DIS
     411      10.71404366      10.71022558       3.565E-04      2.83    <-- DIS
     412      10.71164405      10.70787060       3.524E-04      2.84    <-- DIS
     413      10.70927328      10.70554482       3.483E-04      2.84    <-- DIS
     414      10.70693154      10.70324836       3.441E-04      2.85    <-- DIS
     415      10.70461897      10.70098132       3.399E-04      2.86    <-- DIS
     416      10.70233569      10.69874377       3.357E-04      2.86    <-- DIS
     417      10.70008180      10.69653575       3.315E-04      2.87    <-- DIS
     418      10.69785735      10.69435727       3.273E-04      2.88    <-- DIS
     419      10.69566236      10.69220831       3.230E-04      2.88    <-- DIS
     420      10.69349685      10.69008884       3.188E-04      2.89    <-- DIS
     421      10.69136079      10.68799877       3.146E-04      2.90    <-- DIS
     422      10.68925412      10.68593804       3.103E-04      2.90    <-- DIS
     423      10.68717678      10.68390652       3.061E-04      2.91    <-- DIS
     424      10.68512868      10.68190409       3.019E-04      2.92    <-- DIS
     425      10.68310968      10.67993059       2.977E-04      2.93    <-- DIS
     426      10.68111966      10.67798585       2.935E-04      2.93    <-- DIS
     427      10.67915847      10.67606969       2.893E-04      2.94    <-- DIS
     428      10.67722592      10.67418190       2.852E-04      2.95    <-- DIS
     429      10.67532182      10.67232227       2.811E-04      2.95    <-- DIS
     430      10.67344597      10.67049057       2.770E-04      2.96    <-- DIS
     431      10.67159815      10.66868654       2.729E-04      2.97    <-- DIS
     432      10.66977812      10.66690994       2.689E-04      2.97    <-- DIS
     433      10.66798564      10.66516050       2.649E-04      2.98    <-- DIS
     434      10.66622044      10.66343793       2.609E-04      2.99    <-- DIS
     435      10.66448226      10.66174196       2.570E-04      2.99    <-- DIS
     436      10.66277081      10.66007229       2.531E-04      3.00    <-- DIS
     437      10.66108582      10.65842861       2.493E-04      3.01    <-- DIS
     438      10.65942698      10.65681063       2.455E-04      3.01    <-- DIS
     439      10.65779398      10.65521802       2.418E-04      3.02    <-- DIS
     440      10.65618653      10.65365047       2.380E-04      3.03    <-- DIS
     441      10.65460431      10.65210765       2.344E-04      3.04    <-- DIS
     442      10.65304700      10.65058924       2.308E-04      3.04    <-- DIS
     443      10.65151427      10.64909490       2.272E-04      3.05    <-- DIS
     444      10.65000580      10.64762432       2.237E-04      3.06    <-- DIS
     445      10.64852125      10.64617714       2.202E-04      3.06    <-- DIS
     446      10.64706031      10.64475304       2.168E-04      3.07    <-- DIS
     447      10.64562262      10.64335168       2.134E-04      3.08    <-- DIS
     448      10.64420787      10.64197273       2.100E-04      3.08    <-- DIS
     449      10.64281571      10.64061584       2.067E-04      3.09    <-- DIS
     450      10.64144580      10.63928069       2.035E-04      3.10    <-- DIS
     451      10.64009782      10.63796693       2.003E-04      3.11    <-- DIS
     452      10.63877142      10.63667423       1.972E-04      3.11    <-- DIS
     453      10.63746628      10.63540227       1.941E-04      3.12    <-- DIS
     454      10.63618206      10.63415070       1.910E-04      3.13    <-- DIS
     455      10.63491843      10.63291921       1.880E-04      3.13    <-- DIS
     456      10.63367505      10.63170746       1.851E-04      3.14    <-- DIS
     457      10.63245162      10.63051513       1.822E-04      3.15    <-- DIS
     458      10.63124779      10.62934190       1.793E-04      3.15    <-- DIS
     459      10.63006324      10.62818746       1.765E-04      3.16    <-- DIS
     460      10.62889767      10.62705149       1.737E-04      3.17    <-- DIS
     461      10.62775075      10.62593367       1.710E-04      3.18    <-- DIS
     462      10.62662216      10.62483371       1.683E-04      3.18    <-- DIS
     463      10.62551161      10.62375129       1.657E-04      3.19    <-- DIS
     464      10.62441878      10.62268612       1.631E-04      3.20    <-- DIS
     465      10.62334337      10.62163790       1.606E-04      3.20    <-- DIS
     466      10.62228509      10.62060633       1.581E-04      3.21    <-- DIS
     467      10.62124363      10.61959113       1.556E-04      3.22    <-- DIS
     468      10.62021871      10.61859202       1.532E-04      3.22    <-- DIS
     469      10.61921005      10.61760871       1.508E-04      3.23    <-- DIS
     470      10.61821735      10.61664092       1.485E-04      3.24    <-- DIS
     471      10.61724034      10.61568839       1.462E-04      3.25    <-- DIS
     472      10.61627874      10.61475085       1.439E-04      3.26    <-- DIS
     473      10.61533229      10.61382803       1.417E-04      3.27    <-- DIS
     474      10.61440071      10.61291967       1.396E-04      3.27    <-- DIS
     475      10.61348376      10.61202552       1.374E-04      3.28    <-- DIS
     476      10.61258116      10.61114532       1.353E-04      3.29    <-- DIS
     477      10.61169266      10.61027884       1.333E-04      3.30    <-- DIS
     478      10.61081802      10.60942582       1.312E-04      3.30    <-- DIS
     479      10.60995699      10.60858603       1.292E-04      3.31    <-- DIS
     480      10.60910934      10.60775923       1.273E-04      3.32    <-- DIS
     481      10.60827481      10.60694520       1.254E-04      3.32    <-- DIS
     482      10.60745318      10.60614370       1.235E-04      3.33    <-- DIS
     483      10.60664422      10.60535452       1.216E-04      3.34    <-- DIS
     484      10.60584771      10.60457744       1.198E-04      3.34    <-- DIS
     485      10.60506343      10.60381223       1.180E-04      3.35    <-- DIS
     486      10.60429115      10.60305870       1.162E-04      3.36    <-- DIS
     487      10.60353067      10.60231664       1.145E-04      3.37    <-- DIS
     488      10.60278178      10.60158584       1.128E-04      3.37    <-- DIS
     489      10.60204428      10.60086610       1.111E-04      3.38    <-- DIS
     490      10.60131795      10.60015723       1.095E-04      3.39    <-- DIS
     491      10.60060261      10.59945904       1.079E-04      3.39    <-- DIS
     492      10.59989806      10.59877135       1.063E-04      3.40    <-- DIS
     493      10.59920411      10.59809395       1.048E-04      3.41    <-- DIS
     494      10.59852058      10.59742669       1.032E-04      3.41    <-- DIS
     495      10.59784728      10.59676937       1.017E-04      3.42    <-- DIS
     496      10.59718403      10.59612182       1.002E-04      3.43    <-- DIS
     497      10.59653067      10.59548388       9.880E-05      3.43    <-- DIS
     498      10.59588700      10.59485538       9.737E-05      3.44    <-- DIS
     499      10.59525287      10.59423615       9.597E-05      3.45    <-- DIS
     500      10.59462811      10.59362603       9.459E-05      3.45    <-- DIS
     501      10.59401256      10.59302486       9.324E-05      3.46    <-- DIS
     502      10.59340606      10.59243250       9.191E-05      3.47    <-- DIS
     503      10.59280844      10.59184878       9.060E-05      3.48    <-- DIS
     504      10.59221957      10.59127357       8.932E-05      3.48    <-- DIS
     505      10.59163928      10.59070671       8.806E-05      3.49    <-- DIS
     506      10.59106743      10.59014806       8.681E-05      3.50    <-- DIS
     507      10.59050388      10.58959748       8.559E-05      3.50    <-- DIS
     508      10.58994848      10.58905483       8.439E-05      3.51    <-- DIS
     509      10.58940110      10.58851998       8.321E-05      3.52    <-- DIS
     510      10.58886160      10.58799280       8.205E-05      3.52    <-- DIS
     511      10.58832984      10.58747316       8.091E-05      3.53    <-- DIS
     512      10.58780569      10.58696093       7.979E-05      3.54    <-- DIS
     513      10.58728903      10.58645599       7.869E-05      3.55    <-- DIS
     514      10.58677973      10.58595820       7.761E-05      3.56    <-- DIS
     515      10.58627766      10.58546747       7.654E-05      3.56    <-- DIS
     516      10.58578271      10.58498366       7.549E-05      3.57    <-- DIS
     517      10.58529476      10.58450666       7.446E-05      3.58    <-- DIS
     518      10.58481368      10.58403636       7.344E-05      3.59    <-- DIS
     519      10.58433937      10.58357265       7.244E-05      3.60    <-- DIS
     520      10.58387172      10.58311542       7.146E-05      3.61    <-- DIS
     521      10.58341060      10.58266456       7.050E-05      3.62    <-- DIS
     522      10.58295592      10.58221997       6.955E-05      3.62    <-- DIS
     523      10.58250758      10.58178155       6.861E-05      3.63    <-- DIS
     524      10.58206545      10.58134919       6.769E-05      3.64    <-- DIS
     525      10.58162946      10.58092280       6.679E-05      3.64    <-- DIS
     526      10.58119948      10.58050228       6.590E-05      3.65    <-- DIS
     527      10.58077544      10.58008753       6.502E-05      3.66    <-- DIS
     528      10.58035723      10.57967847       6.416E-05      3.66    <-- DIS
     529      10.57994475      10.57927500       6.331E-05      3.67    <-- DIS
     530      10.57953792      10.57887703       6.247E-05      3.68    <-- DIS
     531      10.57913664      10.57848448       6.165E-05      3.68    <-- DIS
     532      10.57874083      10.57809725       6.084E-05      3.69    <-- DIS
     533      10.57835039      10.57771527       6.004E-05      3.70    <-- DIS
     534      10.57796525      10.57733845       5.926E-05      3.71    <-- DIS
     535      10.57758532      10.57696670       5.849E-05      3.72    <-- DIS
     536      10.57721051      10.57659996       5.773E-05      3.72    <-- DIS
     537      10.57684075      10.57623814       5.698E-05      3.73    <-- DIS
     538      10.57647596      10.57588115       5.624E-05      3.74    <-- DIS
     539      10.57611605      10.57552894       5.552E-05      3.75    <-- DIS
     540      10.57576096      10.57518142       5.480E-05      3.75    <-- DIS
     541      10.57541060      10.57483852       5.410E-05      3.76    <-- DIS
     542      10.57506490      10.57450017       5.341E-05      3.77    <-- DIS
     543      10.57472380      10.57416630       5.272E-05      3.77    <-- DIS
     544      10.57438722      10.57383684       5.205E-05      3.78    <-- DIS
     545      10.57405509      10.57351173       5.139E-05      3.79    <-- DIS
     546      10.57372733      10.57319088       5.074E-05      3.79    <-- DIS
     547      10.57340390      10.57287425       5.009E-05      3.80    <-- DIS
     548      10.57308471      10.57256177       4.946E-05      3.81    <-- DIS
     549      10.57276971      10.57225337       4.884E-05      3.81    <-- DIS
     550      10.57245883      10.57194900       4.822E-05      3.82    <-- DIS
     551      10.57215200      10.57164858       4.762E-05      3.83    <-- DIS
     552      10.57184917      10.57135207       4.702E-05      3.83    <-- DIS
     553      10.57155028      10.57105940       4.644E-05      3.84    <-- DIS
     554      10.57125527      10.57077052       4.586E-05      3.85    <-- DIS
     555      10.57096408      10.57048536       4.529E-05      3.86    <-- DIS
     556      10.57067665      10.57020388       4.473E-05      3.86    <-- DIS
     557      10.57039292      10.56992602       4.417E-05      3.87    <-- DIS
     558      10.57011285      10.56965173       4.363E-05      3.88    <-- DIS
     559      10.56983637      10.56938095       4.309E-05      3.88    <-- DIS
     560      10.56956344      10.56911363       4.256E-05      3.89    <-- DIS
     561      10.56929400      10.56884972       4.204E-05      3.90    <-- DIS
     562      10.56902800      10.56858917       4.152E-05      3.91    <-- DIS
     563      10.56876539      10.56833194       4.101E-05      3.91    <-- DIS
     564      10.56850612      10.56807797       4.051E-05      3.92    <-- DIS
     565      10.56825014      10.56782721       4.002E-05      3.93    <-- DIS
     566      10.56799740      10.56757962       3.953E-05      3.93    <-- DIS
     567      10.56774786      10.56733516       3.905E-05      3.94    <-- DIS
     568      10.56750148      10.56709378       3.858E-05      3.95    <-- DIS
     569      10.56725819      10.56685543       3.812E-05      3.95    <-- DIS
     570      10.56701797      10.56662007       3.766E-05      3.96    <-- DIS
     571      10.56678076      10.56638766       3.720E-05      3.97    <-- DIS
     572      10.56654653      10.56615816       3.676E-05      3.97    <-- DIS
     573      10.56631523      10.56593152       3.632E-05      3.98    <-- DIS
     574      10.56608681      10.56570770       3.588E-05      3.99    <-- DIS
     575      10.56586125      10.56548667       3.545E-05      3.99    <-- DIS
     576      10.56563849      10.56526839       3.503E-05      4.00    <-- DIS
     577      10.56541850      10.56505281       3.461E-05      4.01    <-- DIS
     578      10.56520123      10.56483990       3.420E-05      4.02    <-- DIS
     579      10.56498666      10.56462962       3.380E-05      4.02    <-- DIS
     580      10.56477474      10.56442193       3.340E-05      4.03    <-- DIS
     581      10.56456543      10.56421680       3.300E-05      4.04    <-- DIS
     582      10.56435871      10.56401419       3.261E-05      4.04    <-- DIS
     583      10.56415452      10.56381407       3.223E-05      4.05    <-- DIS
     584      10.56395284      10.56361640       3.185E-05      4.06    <-- DIS
     585      10.56375364      10.56342115       3.148E-05      4.07    <-- DIS
     586      10.56355687      10.56322828       3.111E-05      4.07    <-- DIS
     587      10.56336251      10.56303777       3.074E-05      4.08    <-- DIS
     588      10.56317052      10.56284958       3.038E-05      4.09    <-- DIS
     589      10.56298087      10.56266367       3.003E-05      4.09    <-- DIS
     590      10.56279352      10.56248002       2.968E-05      4.10    <-- DIS
     591      10.56260845      10.56229860       2.934E-05      4.11    <-- DIS
     592      10.56242563      10.56211937       2.900E-05      4.11    <-- DIS
     593      10.56224501      10.56194231       2.866E-05      4.12    <-- DIS
     594      10.56206658      10.56176739       2.833E-05      4.13    <-- DIS
     595      10.56189031      10.56159457       2.800E-05      4.13    <-- DIS
     596      10.56171615      10.56142383       2.768E-05      4.14    <-- DIS
     597      10.56154410      10.56125514       2.736E-05      4.15    <-- DIS
     598      10.56137411      10.56108848       2.705E-05      4.16    <-- DIS
     599      10.56120616      10.56092381       2.674E-05      4.16    <-- DIS
     600      10.56104022      10.56076111       2.643E-05      4.17    <-- DIS
     601      10.56087627      10.56060036       2.613E-05      4.18    <-- DIS
     602      10.56071428      10.56044152       2.583E-05      4.18    <-- DIS
     603      10.56055422      10.56028458       2.553E-05      4.19    <-- DIS
     604      10.56039606      10.56012950       2.524E-05      4.20    <-- DIS
     605      10.56023979      10.55997626       2.496E-05      4.21    <-- DIS
     606      10.56008538      10.55982484       2.467E-05      4.21    <-- DIS
     607      10.55993279      10.55967522       2.439E-05      4.22    <-- DIS
     608      10.55978202      10.55952736       2.412E-05      4.23    <-- DIS
     609      10.55963302      10.55938125       2.384E-05      4.23    <-- DIS
     610      10.55948579      10.55923687       2.357E-05      4.24    <-- DIS
     611      10.55934030      10.55909418       2.331E-05      4.25    <-- DIS
     612      10.55919652      10.55895318       2.305E-05      4.25    <-- DIS
     613      10.55905443      10.55881383       2.279E-05      4.26    <-- DIS
     614      10.55891401      10.55867611       2.253E-05      4.27    <-- DIS
     615      10.55877524      10.55854002       2.228E-05      4.27    <-- DIS
     616      10.55863809      10.55840551       2.203E-05      4.28    <-- DIS
     617      10.55850256      10.55827258       2.178E-05      4.29    <-- DIS
     618      10.55836860      10.55814120       2.154E-05      4.30    <-- DIS
     619      10.55823621      10.55801135       2.130E-05      4.30    <-- DIS
     620      10.55810537      10.55788301       2.106E-05      4.31    <-- DIS
     621      10.55797605      10.55775617       2.083E-05      4.32    <-- DIS
     622      10.55784823      10.55763080       2.060E-05      4.32    <-- DIS
     623      10.55772190      10.55750688       2.037E-05      4.33    <-- DIS
     624      10.55759704      10.55738440       2.014E-05      4.34    <-- DIS
     625      10.55747362      10.55726334       1.992E-05      4.35    <-- DIS
     626      10.55735163      10.55714368       1.970E-05      4.35    <-- DIS
     627      10.55723105      10.55702540       1.948E-05      4.36    <-- DIS
     628      10.55711187      10.55690849       1.926E-05      4.37    <-- DIS
     629      10.55699406      10.55679292       1.905E-05      4.37    <-- DIS
     630      10.55687760      10.55667868       1.884E-05      4.38    <-- DIS
     631      10.55676249      10.55656576       1.864E-05      4.39    <-- DIS
     632      10.55664870      10.55645413       1.843E-05      4.39    <-- DIS
     633      10.55653622      10.55634379       1.823E-05      4.40    <-- DIS
     634      10.55642503      10.55623470       1.803E-05      4.41    <-- DIS
     635      10.55631511      10.55612687       1.783E-05      4.41    <-- DIS
     636      10.55620645      10.55602027       1.764E-05      4.42    <-- DIS
     637      10.55609903      10.55591488       1.744E-05      4.43    <-- DIS
     638      10.55599283      10.55581070       1.725E-05      4.43    <-- DIS
     639      10.55588785      10.55570771       1.707E-05      4.44    <-- DIS
     640      10.55578407      10.55560588       1.688E-05      4.45    <-- DIS
     641      10.55568146      10.55550522       1.670E-05      4.45    <-- DIS
     642      10.55558003      10.55540570       1.652E-05      4.46    <-- DIS
     643      10.55547974      10.55530730       1.634E-05      4.47    <-- DIS
     644      10.55538059      10.55521002       1.616E-05      4.48    <-- DIS
     645      10.55528257      10.55511385       1.598E-05      4.48    <-- DIS
     646      10.55518565      10.55501876       1.581E-05      4.49    <-- DIS
     647      10.55508984      10.55492474       1.564E-05      4.50    <-- DIS
     648      10.55499510      10.55483179       1.547E-05      4.50    <-- DIS
     649      10.55490143      10.55473988       1.531E-05      4.51    <-- DIS
     650      10.55480882      10.55464901       1.514E-05      4.52    <-- DIS
     651      10.55471725      10.55455916       1.498E-05      4.52    <-- DIS
     652      10.55462671      10.55447032       1.482E-05      4.53    <-- DIS
     653      10.55453719      10.55438248       1.466E-05      4.54    <-- DIS
     654      10.55444868      10.55429563       1.450E-05      4.54    <-- DIS
     655      10.55436115      10.55420974       1.435E-05      4.55    <-- DIS
     656      10.55427461      10.55412482       1.419E-05      4.56    <-- DIS
     657      10.55418904      10.55404085       1.404E-05      4.57    <-- DIS
     658      10.55410442      10.55395782       1.389E-05      4.57    <-- DIS
     659      10.55402075      10.55387571       1.374E-05      4.58    <-- DIS
     660      10.55393801      10.55379452       1.360E-05      4.59    <-- DIS
     661      10.55385620      10.55371423       1.345E-05      4.59    <-- DIS
     662      10.55377529      10.55363484       1.331E-05      4.60    <-- DIS
     663      10.55369529      10.55355633       1.317E-05      4.61    <-- DIS
     664      10.55361618      10.55347869       1.303E-05      4.61    <-- DIS
     665      10.55353794      10.55340191       1.289E-05      4.62    <-- DIS
     666      10.55346057      10.55332599       1.275E-05      4.63    <-- DIS
     667      10.55338406      10.55325090       1.262E-05      4.63    <-- DIS
     668      10.55330840      10.55317665       1.248E-05      4.64    <-- DIS
     669      10.55323358      10.55310322       1.235E-05      4.65    <-- DIS
     670      10.55315958      10.55303060       1.222E-05      4.66    <-- DIS
     671      10.55308640      10.55295878       1.209E-05      4.66    <-- DIS
     672      10.55301403      10.55288775       1.197E-05      4.67    <-- DIS
     673      10.55294245      10.55281751       1.184E-05      4.68    <-- DIS
     674      10.55287166      10.55274803       1.172E-05      4.68    <-- DIS
     675      10.55280166      10.55267933       1.159E-05      4.69    <-- DIS
     676      10.55273242      10.55261137       1.147E-05      4.70    <-- DIS
     677      10.55266394      10.55254417       1.135E-05      4.70    <-- DIS
     678      10.55259622      10.55247770       1.123E-05      4.71    <-- DIS
     679      10.55252923      10.55241195       1.111E-05      4.72    <-- DIS
     680      10.55246299      10.55234693       1.100E-05      4.72    <-- DIS
     681      10.55239746      10.55228262       1.088E-05      4.73    <-- DIS
     682      10.55233265      10.55221901       1.077E-05      4.74    <-- DIS
     683      10.55226856      10.55215610       1.066E-05      4.75    <-- DIS
     684      10.55220516      10.55209387       1.055E-05      4.75    <-- DIS
     685      10.55214245      10.55203233       1.044E-05      4.76    <-- DIS
     686      10.55208043      10.55197145       1.033E-05      4.77    <-- DIS
     687      10.55201908      10.55191123       1.022E-05      4.77    <-- DIS
     688      10.55195840      10.55185167       1.011E-05      4.78    <-- DIS
     689      10.55189837      10.55179276       1.001E-05      4.79    <-- DIS
     690      10.55183901      10.55173448       9.906E-06      4.79    <-- DIS
     691      10.55178028      10.55167684       9.803E-06      4.80    <-- DIS
     692      10.55172219      10.55161982       9.702E-06      4.81    <-- DIS
     693      10.55166473      10.55156342       9.601E-06      4.81    <-- DIS
     694      10.55160790      10.55150763       9.502E-06      4.82    <-- DIS
     695      10.55155167      10.55145245       9.404E-06      4.83    <-- DIS
     696      10.55149606      10.55139786       9.307E-06      4.83    <-- DIS
     697      10.55144105      10.55134385       9.211E-06      4.84    <-- DIS
     698      10.55138662      10.55129043       9.116E-06      4.85    <-- DIS
     699      10.55133279      10.55123759       9.023E-06      4.86    <-- DIS
     700      10.55127954      10.55118532       8.930E-06      4.86    <-- DIS
     701      10.55122686      10.55113360       8.838E-06      4.87    <-- DIS
     702      10.55117474      10.55108245       8.748E-06      4.88    <-- DIS
     703      10.55112319      10.55103184       8.658E-06      4.88    <-- DIS
     704      10.55107219      10.55098177       8.569E-06      4.89    <-- DIS
     705      10.55102174      10.55093225       8.482E-06      4.90    <-- DIS
     706      10.55097182      10.55088325       8.395E-06      4.90    <-- DIS
     707      10.55092245      10.55083478       8.309E-06      4.91    <-- DIS
     708      10.55087360      10.55078682       8.224E-06      4.92    <-- DIS
     709      10.55082527      10.55073938       8.141E-06      4.93    <-- DIS
     710      10.55077746      10.55069245       8.058E-06      4.93    <-- DIS
     711      10.55073016      10.55064601       7.976E-06      4.94    <-- DIS
     712      10.55068336      10.55060007       7.894E-06      4.95    <-- DIS
     713      10.55063707      10.55055462       7.814E-06      4.95    <-- DIS
     714      10.55059126      10.55050966       7.735E-06      4.96    <-- DIS
     715      10.55054595      10.55046517       7.656E-06      4.97    <-- DIS
     716      10.55050111      10.55042116       7.579E-06      4.97    <-- DIS
     717      10.55045676      10.55037761       7.502E-06      4.98    <-- DIS
     718      10.55041287      10.55033452       7.426E-06      4.99    <-- DIS
     719      10.55036945      10.55029189       7.351E-06      4.99    <-- DIS
     720      10.55032649      10.55024972       7.277E-06      5.00    <-- DIS
     721      10.55028398      10.55020799       7.203E-06      5.01    <-- DIS
     722      10.55024193      10.55016670       7.131E-06      5.01    <-- DIS
     723      10.55020032      10.55012585       7.059E-06      5.02    <-- DIS
     724      10.55015915      10.55008543       6.988E-06      5.03    <-- DIS
     725      10.55011841      10.55004543       6.917E-06      5.03    <-- DIS
     726      10.55007811      10.55000586       6.848E-06      5.04    <-- DIS
     727      10.55003822      10.54996671       6.779E-06      5.05    <-- DIS
     728      10.54999876      10.54992796       6.711E-06      5.06    <-- DIS
     729      10.54995972      10.54988963       6.644E-06      5.06    <-- DIS
     730      10.54992108      10.54985170       6.577E-06      5.07    <-- DIS
     731      10.54988285      10.54981416       6.511E-06      5.08    <-- DIS
     732      10.54984503      10.54977702       6.446E-06      5.08    <-- DIS
     733      10.54980760      10.54974027       6.382E-06      5.09    <-- DIS
     734      10.54977056      10.54970391       6.318E-06      5.10    <-- DIS
     735      10.54973391      10.54966792       6.255E-06      5.11    <-- DIS
     736      10.54969765      10.54963232       6.193E-06      5.11    <-- DIS
     737      10.54966176      10.54959708       6.131E-06      5.12    <-- DIS
     738      10.54962625      10.54956221       6.070E-06      5.13    <-- DIS
     739      10.54959111      10.54952771       6.010E-06      5.13    <-- DIS
     740      10.54955634      10.54949357       5.950E-06      5.14    <-- DIS
     741      10.54952193      10.54945978       5.891E-06      5.15    <-- DIS
     742      10.54948788      10.54942635       5.832E-06      5.15    <-- DIS
     743      10.54945418      10.54939326       5.775E-06      5.16    <-- DIS
     744      10.54942083      10.54936052       5.717E-06      5.17    <-- DIS
     745      10.54938783      10.54932812       5.661E-06      5.17    <-- DIS
     746      10.54935518      10.54929605       5.605E-06      5.18    <-- DIS
     747      10.54932286      10.54926432       5.550E-06      5.19    <-- DIS
     748      10.54929088      10.54923291       5.495E-06      5.19    <-- DIS
     749      10.54925923      10.54920183       5.441E-06      5.20    <-- DIS
     750      10.54922791      10.54917108       5.387E-06      5.21    <-- DIS
     751      10.54919691      10.54914064       5.334E-06      5.22    <-- DIS
     752      10.54916623      10.54911052       5.282E-06      5.22    <-- DIS
     753      10.54913587      10.54908070       5.230E-06      5.23    <-- DIS
     754      10.54910582      10.54905120       5.178E-06      5.24    <-- DIS
     755      10.54907609      10.54902200       5.128E-06      5.24    <-- DIS
     756      10.54904666      10.54899310       5.077E-06      5.25    <-- DIS
     757      10.54901753      10.54896449       5.028E-06      5.26    <-- DIS
     758      10.54898870      10.54893619       4.978E-06      5.26    <-- DIS
     759      10.54896017      10.54890817       4.930E-06      5.27    <-- DIS
     760      10.54893194      10.54888044       4.882E-06      5.28    <-- DIS
     761      10.54890399      10.54885300       4.834E-06      5.28    <-- DIS
     762      10.54887633      10.54882583       4.787E-06      5.29    <-- DIS
[...]
  WF centre and spread    5  ( -0.556737,  1.434443, -0.000007 )     1.26093798
  WF centre and spread    6  (  0.560726, -1.435176,  0.000007 )     1.26187451
  WF centre and spread    7  ( -0.000012, -0.000007, -0.000074 )     0.43635883
  WF centre and spread    8  ( -0.000039,  0.000388,  0.000024 )     0.39242886
  WF centre and spread    9  (  0.000193,  0.000181,  0.000073 )     0.45563753
  WF centre and spread   10  ( -0.000202, -0.000184, -0.000012 )     0.41876205
  WF centre and spread   11  (  0.000089, -0.000083,  0.000044 )     0.45572239
  WF centre and spread   12  ( -0.000068,  0.000065, -0.000008 )     0.41876478
  WF centre and spread   13  (  0.020630, -0.001505, -0.000001 )     0.47408738
  WF centre and spread   14  ( -0.020451, -0.001798, -0.000029 )     0.47011563
  WF centre and spread   15  ( -0.000180,  0.002412, -0.000005 )     0.40823906
  WF centre and spread   16  (  0.000124,  0.000352, -0.000011 )     0.39315268
  Sum of centres and spreads (  0.006072,  0.001691, -0.000000 )    11.80164688

   1323    -0.374E-09     0.0000136142       11.8016463301      61.62  <-- CONV
        O_D=      0.0647536 O_OD=      1.1915967 O_TOT=     11.8016463 <-- SPRD
 Delta: O_D= -0.1248946E-07 O_OD=  0.1211560E-07 O_TOT= -0.3738627E-09 <-- DLTA
 ------------------------------------------------------------------------------
 Cycle:   1324
  WF centre and spread    1  (  0.258344, -0.648816, -1.435000 )     1.23964478
  WF centre and spread    2  ( -0.256199,  0.651431,  1.434999 )     1.23815629
  WF centre and spread    3  ( -1.177203, -0.785555, -0.000002 )     1.23963993
  WF centre and spread    4  (  1.177057,  0.785544,  0.000001 )     1.23812406
  WF centre and spread    5  ( -0.556737,  1.434443, -0.000007 )     1.26093809
  WF centre and spread    6  (  0.560726, -1.435176,  0.000007 )     1.26187448
  WF centre and spread    7  ( -0.000012, -0.000007, -0.000074 )     0.43635880
  WF centre and spread    8  ( -0.000039,  0.000388,  0.000024 )     0.39242887
  WF centre and spread    9  (  0.000193,  0.000181,  0.000073 )     0.45563752
  WF centre and spread   10  ( -0.000202, -0.000184, -0.000012 )     0.41876204
  WF centre and spread   11  (  0.000089, -0.000083,  0.000044 )     0.45572236
  WF centre and spread   12  ( -0.000068,  0.000065, -0.000008 )     0.41876480
  WF centre and spread   13  (  0.020630, -0.001505, -0.000001 )     0.47408735
  WF centre and spread   14  ( -0.020451, -0.001798, -0.000029 )     0.47011582
  WF centre and spread   15  ( -0.000180,  0.002412, -0.000005 )     0.40823907
  WF centre and spread   16  (  0.000124,  0.000352, -0.000011 )     0.39315264
  Sum of centres and spreads (  0.006072,  0.001691, -0.000000 )    11.80164688

   1324    -0.421E-09     0.0000127286       11.8016463297      61.64  <-- CONV
        O_D=      0.0647535 O_OD=      1.1915967 O_TOT=     11.8016463 <-- SPRD
 Delta: O_D= -0.2731654E-07 O_OD=  0.2689596E-07 O_TOT= -0.4205791E-09 <-- DLTA
 ------------------------------------------------------------------------------
 Cycle:   1325
  WF centre and spread    1  (  0.258343, -0.648816, -1.435000 )     1.23964470
  WF centre and spread    2  ( -0.256199,  0.651431,  1.434999 )     1.23815622
  WF centre and spread    3  ( -1.177203, -0.785555, -0.000002 )     1.23963995
  WF centre and spread    4  (  1.177057,  0.785544,  0.000001 )     1.23812407
  WF centre and spread    5  ( -0.556737,  1.434443, -0.000007 )     1.26093814
  WF centre and spread    6  (  0.560726, -1.435176,  0.000007 )     1.26187446
  WF centre and spread    7  ( -0.000012, -0.000007, -0.000074 )     0.43635877
  WF centre and spread    8  ( -0.000039,  0.000388,  0.000024 )     0.39242888
  WF centre and spread    9  (  0.000193,  0.000181,  0.000073 )     0.45563751
  WF centre and spread   10  ( -0.000202, -0.000184, -0.000012 )     0.41876203
  WF centre and spread   11  (  0.000089, -0.000083,  0.000044 )     0.45572235
  WF centre and spread   12  ( -0.000068,  0.000065, -0.000008 )     0.41876481
  WF centre and spread   13  (  0.020630, -0.001505, -0.000001 )     0.47408736
  WF centre and spread   14  ( -0.020451, -0.001798, -0.000029 )     0.47011596
  WF centre and spread   15  ( -0.000180,  0.002411, -0.000005 )     0.40823907
  WF centre and spread   16  (  0.000124,  0.000352, -0.000011 )     0.39315262
  Sum of centres and spreads (  0.006072,  0.001691, -0.000000 )    11.80164688

   1325    -0.298E-09     0.0000107249       11.8016463294      61.66  <-- CONV
        O_D=      0.0647535 O_OD=      1.1915968 O_TOT=     11.8016463 <-- SPRD
 Delta: O_D= -0.3284891E-07 O_OD=  0.3255067E-07 O_TOT= -0.2982485E-09 <-- DLTA
 ------------------------------------------------------------------------------
 Cycle:   1326
  WF centre and spread    1  (  0.258343, -0.648816, -1.435000 )     1.23964442
  WF centre and spread    2  ( -0.256199,  0.651431,  1.434999 )     1.23815607
  WF centre and spread    3  ( -1.177202, -0.785555, -0.000002 )     1.23964001
  WF centre and spread    4  (  1.177057,  0.785544,  0.000001 )     1.23812420
  WF centre and spread    5  ( -0.556737,  1.434443, -0.000006 )     1.26093816
  WF centre and spread    6  (  0.560726, -1.435175,  0.000006 )     1.26187443
  WF centre and spread    7  ( -0.000012, -0.000007, -0.000074 )     0.43635869
  WF centre and spread    8  ( -0.000039,  0.000388,  0.000024 )     0.39242891
  WF centre and spread    9  (  0.000193,  0.000181,  0.000073 )     0.45563747
  WF centre and spread   10  ( -0.000202, -0.000184, -0.000012 )     0.41876202
  WF centre and spread   11  (  0.000089, -0.000083,  0.000044 )     0.45572231
  WF centre and spread   12  ( -0.000068,  0.000065, -0.000008 )     0.41876486
  WF centre and spread   13  (  0.020630, -0.001504, -0.000001 )     0.47408740
  WF centre and spread   14  ( -0.020451, -0.001798, -0.000029 )     0.47011633
  WF centre and spread   15  ( -0.000180,  0.002411, -0.000005 )     0.40823906
  WF centre and spread   16  (  0.000124,  0.000352, -0.000011 )     0.39315254
  Sum of centres and spreads (  0.006072,  0.001691, -0.000000 )    11.80164688

   1326     0.494E-09     0.0000095775       11.8016463299      61.68  <-- CONV
        O_D=      0.0647534 O_OD=      1.1915969 O_TOT=     11.8016463 <-- SPRD
 Delta: O_D= -0.9335542E-07 O_OD=  0.9384927E-07 O_TOT=  0.4938556E-09 <-- DLTA
 ------------------------------------------------------------------------------
 Cycle:   1327
  WF centre and spread    1  (  0.258343, -0.648816, -1.435000 )     1.23964445
  WF centre and spread    2  ( -0.256199,  0.651431,  1.434999 )     1.23815608
  WF centre and spread    3  ( -1.177202, -0.785555, -0.000002 )     1.23964001
  WF centre and spread    4  (  1.177057,  0.785544,  0.000001 )     1.23812422
  WF centre and spread    5  ( -0.556737,  1.434443, -0.000006 )     1.26093812
  WF centre and spread    6  (  0.560726, -1.435175,  0.000006 )     1.26187446
  WF centre and spread    7  ( -0.000012, -0.000007, -0.000074 )     0.43635869
  WF centre and spread    8  ( -0.000039,  0.000388,  0.000024 )     0.39242892
  WF centre and spread    9  (  0.000193,  0.000181,  0.000073 )     0.45563747
  WF centre and spread   10  ( -0.000202, -0.000184, -0.000012 )     0.41876201
  WF centre and spread   11  (  0.000089, -0.000083,  0.000044 )     0.45572232
  WF centre and spread   12  ( -0.000068,  0.000065, -0.000008 )     0.41876486
  WF centre and spread   13  (  0.020630, -0.001504, -0.000001 )     0.47408738
  WF centre and spread   14  ( -0.020451, -0.001798, -0.000029 )     0.47011634
  WF centre and spread   15  ( -0.000180,  0.002411, -0.000005 )     0.40823904
  WF centre and spread   16  (  0.000124,  0.000352, -0.000011 )     0.39315252
  Sum of centres and spreads (  0.006072,  0.001691, -0.000000 )    11.80164688

   1327    -0.110E-08     0.0000204312       11.8016463288      61.70  <-- CONV
        O_D=      0.0647534 O_OD=      1.1915968 O_TOT=     11.8016463 <-- SPRD
 Delta: O_D=  0.2476080E-07 O_OD= -0.2585710E-07 O_TOT= -0.1096293E-08 <-- DLTA
 ------------------------------------------------------------------------------
 Cycle:   1328
  WF centre and spread    1  (  0.258343, -0.648816, -1.435000 )     1.23964445
  WF centre and spread    2  ( -0.256199,  0.651431,  1.434999 )     1.23815608
  WF centre and spread    3  ( -1.177202, -0.785555, -0.000002 )     1.23964001
  WF centre and spread    4  (  1.177057,  0.785544,  0.000001 )     1.23812422
  WF centre and spread    5  ( -0.556737,  1.434443, -0.000006 )     1.26093812
  WF centre and spread    6  (  0.560726, -1.435175,  0.000006 )     1.26187446
  WF centre and spread    7  ( -0.000012, -0.000007, -0.000074 )     0.43635869
  WF centre and spread    8  ( -0.000039,  0.000388,  0.000024 )     0.39242892
  WF centre and spread    9  (  0.000193,  0.000181,  0.000073 )     0.45563747
  WF centre and spread   10  ( -0.000202, -0.000184, -0.000012 )     0.41876201
  WF centre and spread   11  (  0.000089, -0.000083,  0.000044 )     0.45572232
  WF centre and spread   12  ( -0.000068,  0.000065, -0.000008 )     0.41876486
  WF centre and spread   13  (  0.020630, -0.001504, -0.000001 )     0.47408738
  WF centre and spread   14  ( -0.020451, -0.001798, -0.000029 )     0.47011634
  WF centre and spread   15  ( -0.000180,  0.002411, -0.000005 )     0.40823904
  WF centre and spread   16  (  0.000124,  0.000352, -0.000011 )     0.39315252
  Sum of centres and spreads (  0.006072,  0.001691, -0.000000 )    11.80164688

   1328    -0.330E-11     0.0000085524       11.8016463288      61.72  <-- CONV
        O_D=      0.0647534 O_OD=      1.1915968 O_TOT=     11.8016463 <-- SPRD
 Delta: O_D=  0.1493850E-09 O_OD= -0.1526828E-09 O_TOT= -0.3298695E-11 <-- DLTA
 ------------------------------------------------------------------------------
 Cycle:   1329
  WF centre and spread    1  (  0.258343, -0.648816, -1.435000 )     1.23964448
  WF centre and spread    2  ( -0.256199,  0.651431,  1.434999 )     1.23815610
  WF centre and spread    3  ( -1.177202, -0.785555, -0.000002 )     1.23964002
  WF centre and spread    4  (  1.177057,  0.785544,  0.000001 )     1.23812427
  WF centre and spread    5  ( -0.556737,  1.434443, -0.000006 )     1.26093805
  WF centre and spread    6  (  0.560726, -1.435175,  0.000007 )     1.26187448
  WF centre and spread    7  ( -0.000012, -0.000007, -0.000074 )     0.43635869
  WF centre and spread    8  ( -0.000039,  0.000388,  0.000024 )     0.39242893
  WF centre and spread    9  (  0.000193,  0.000181,  0.000073 )     0.45563746
  WF centre and spread   10  ( -0.000202, -0.000184, -0.000012 )     0.41876201
  WF centre and spread   11  (  0.000089, -0.000083,  0.000044 )     0.45572233
  WF centre and spread   12  ( -0.000068,  0.000065, -0.000008 )     0.41876485
  WF centre and spread   13  (  0.020630, -0.001504, -0.000001 )     0.47408735
  WF centre and spread   14  ( -0.020451, -0.001798, -0.000029 )     0.47011635
  WF centre and spread   15  ( -0.000180,  0.002411, -0.000005 )     0.40823902
  WF centre and spread   16  (  0.000124,  0.000352, -0.000011 )     0.39315251
  Sum of centres and spreads (  0.006072,  0.001691, -0.000000 )    11.80164688

   1329    -0.308E-09     0.0000085108       11.8016463285      61.74  <-- CONV
        O_D=      0.0647535 O_OD=      1.1915968 O_TOT=     11.8016463 <-- SPRD
 Delta: O_D=  0.2221509E-07 O_OD= -0.2252331E-07 O_TOT= -0.3082175E-09 <-- DLTA
 ------------------------------------------------------------------------------
 Cycle:   1330
  WF centre and spread    1  (  0.258343, -0.648816, -1.435000 )     1.23964449
  WF centre and spread    2  ( -0.256199,  0.651431,  1.434999 )     1.23815611
  WF centre and spread    3  ( -1.177202, -0.785555, -0.000002 )     1.23964002
  WF centre and spread    4  (  1.177057,  0.785544,  0.000001 )     1.23812429
  WF centre and spread    5  ( -0.556737,  1.434443, -0.000006 )     1.26093801
  WF centre and spread    6  (  0.560726, -1.435175,  0.000007 )     1.26187449
  WF centre and spread    7  ( -0.000012, -0.000007, -0.000074 )     0.43635869
  WF centre and spread    8  ( -0.000039,  0.000388,  0.000024 )     0.39242893
  WF centre and spread    9  (  0.000193,  0.000181,  0.000073 )     0.45563745
  WF centre and spread   10  ( -0.000202, -0.000184, -0.000012 )     0.41876201
  WF centre and spread   11  (  0.000089, -0.000083,  0.000044 )     0.45572233
  WF centre and spread   12  ( -0.000068,  0.000065, -0.000008 )     0.41876485
  WF centre and spread   13  (  0.020630, -0.001504, -0.000001 )     0.47408734
  WF centre and spread   14  ( -0.020451, -0.001798, -0.000029 )     0.47011635
  WF centre and spread   15  ( -0.000180,  0.002411, -0.000005 )     0.40823901
  WF centre and spread   16  (  0.000124,  0.000352, -0.000011 )     0.39315250
  Sum of centres and spreads (  0.006072,  0.001691, -0.000000 )    11.80164688

   1330    -0.771E-10     0.0000049158       11.8016463284      61.76  <-- CONV
        O_D=      0.0647535 O_OD=      1.1915968 O_TOT=     11.8016463 <-- SPRD
 Delta: O_D=  0.1041878E-07 O_OD= -0.1049589E-07 O_TOT= -0.7711520E-10 <-- DLTA
 ------------------------------------------------------------------------------
 Cycle:   1331
  WF centre and spread    1  (  0.258343, -0.648816, -1.435000 )     1.23964449
  WF centre and spread    2  ( -0.256199,  0.651431,  1.434999 )     1.23815611
  WF centre and spread    3  ( -1.177202, -0.785555, -0.000002 )     1.23964002
  WF centre and spread    4  (  1.177057,  0.785544,  0.000001 )     1.23812429
  WF centre and spread    5  ( -0.556737,  1.434443, -0.000006 )     1.26093801
  WF centre and spread    6  (  0.560726, -1.435175,  0.000007 )     1.26187449
  WF centre and spread    7  ( -0.000012, -0.000007, -0.000074 )     0.43635869
  WF centre and spread    8  ( -0.000039,  0.000388,  0.000024 )     0.39242893
  WF centre and spread    9  (  0.000193,  0.000181,  0.000073 )     0.45563745
  WF centre and spread   10  ( -0.000202, -0.000184, -0.000012 )     0.41876201
  WF centre and spread   11  (  0.000089, -0.000083,  0.000044 )     0.45572233
  WF centre and spread   12  ( -0.000068,  0.000065, -0.000008 )     0.41876485
  WF centre and spread   13  (  0.020630, -0.001504, -0.000001 )     0.47408734
  WF centre and spread   14  ( -0.020451, -0.001798, -0.000029 )     0.47011635
  WF centre and spread   15  ( -0.000180,  0.002411, -0.000005 )     0.40823901
  WF centre and spread   16  (  0.000124,  0.000352, -0.000011 )     0.39315250
  Sum of centres and spreads (  0.006072,  0.001691, -0.000000 )    11.80164688

   1331    -0.140E-11     0.0000042149       11.8016463284      61.77  <-- CONV
        O_D=      0.0647535 O_OD=      1.1915968 O_TOT=     11.8016463 <-- SPRD
 Delta: O_D=  0.1388555E-09 O_OD= -0.1402518E-09 O_TOT= -0.1397993E-11 <-- DLTA
 ------------------------------------------------------------------------------
 Cycle:   1332
  WF centre and spread    1  (  0.258343, -0.648816, -1.435000 )     1.23964450
  WF centre and spread    2  ( -0.256199,  0.651431,  1.434999 )     1.23815613
  WF centre and spread    3  ( -1.177202, -0.785555, -0.000002 )     1.23964003
  WF centre and spread    4  (  1.177057,  0.785544,  0.000001 )     1.23812433
  WF centre and spread    5  ( -0.556737,  1.434443, -0.000006 )     1.26093796
  WF centre and spread    6  (  0.560726, -1.435175,  0.000007 )     1.26187450
  WF centre and spread    7  ( -0.000012, -0.000007, -0.000074 )     0.43635868
  WF centre and spread    8  ( -0.000039,  0.000388,  0.000024 )     0.39242894
  WF centre and spread    9  (  0.000193,  0.000181,  0.000073 )     0.45563745
  WF centre and spread   10  ( -0.000202, -0.000184, -0.000012 )     0.41876201
  WF centre and spread   11  (  0.000089, -0.000083,  0.000044 )     0.45572233
  WF centre and spread   12  ( -0.000068,  0.000065, -0.000008 )     0.41876485
  WF centre and spread   13  (  0.020630, -0.001504, -0.000001 )     0.47408733
  WF centre and spread   14  ( -0.020451, -0.001798, -0.000029 )     0.47011636
  WF centre and spread   15  ( -0.000180,  0.002411, -0.000005 )     0.40823901
  WF centre and spread   16  (  0.000124,  0.000352, -0.000011 )     0.39315249
  Sum of centres and spreads (  0.006072,  0.001691, -0.000000 )    11.80164688

   1332    -0.821E-10     0.0000041862       11.8016463283      61.79  <-- CONV
        O_D=      0.0647535 O_OD=      1.1915968 O_TOT=     11.8016463 <-- SPRD
 Delta: O_D=  0.9535686E-08 O_OD= -0.9617815E-08 O_TOT= -0.8212986E-10 <-- DLTA
 ------------------------------------------------------------------------------

             <<<     Delta < 1.000E-10  over  3 iterations     >>>
             <<< Wannierisation convergence criteria satisfied >>>

 Final State
  WF centre and spread    1  (  0.258343, -0.648816, -1.435000 )     1.23964450
  WF centre and spread    2  ( -0.256199,  0.651431,  1.434999 )     1.23815613
  WF centre and spread    3  ( -1.177202, -0.785555, -0.000002 )     1.23964003
  WF centre and spread    4  (  1.177057,  0.785544,  0.000001 )     1.23812433
  WF centre and spread    5  ( -0.556737,  1.434443, -0.000006 )     1.26093796
  WF centre and spread    6  (  0.560726, -1.435175,  0.000007 )     1.26187450
  WF centre and spread    7  ( -0.000012, -0.000007, -0.000074 )     0.43635868
  WF centre and spread    8  ( -0.000039,  0.000388,  0.000024 )     0.39242894
  WF centre and spread    9  (  0.000193,  0.000181,  0.000073 )     0.45563745
  WF centre and spread   10  ( -0.000202, -0.000184, -0.000012 )     0.41876201
  WF centre and spread   11  (  0.000089, -0.000083,  0.000044 )     0.45572233
  WF centre and spread   12  ( -0.000068,  0.000065, -0.000008 )     0.41876485
  WF centre and spread   13  (  0.020630, -0.001504, -0.000001 )     0.47408733
  WF centre and spread   14  ( -0.020451, -0.001798, -0.000029 )     0.47011636
  WF centre and spread   15  ( -0.000180,  0.002411, -0.000005 )     0.40823901
  WF centre and spread   16  (  0.000124,  0.000352, -0.000011 )     0.39315249
  Sum of centres and spreads (  0.006072,  0.001691, -0.000000 )    11.80164688

         Spreads (Ang^2)       Omega I      =    10.545296062
        ================       Omega D      =     0.064753479
                               Omega OD     =     1.191596786
    Final Spread (Ang^2)       Omega Total  =    11.801646328
 ------------------------------------------------------------------------------
 Time for wannierise           26.909 (sec)

 Writing checkpoint file Fe.chk... done

 *---------------------------------------------------------------------------*
 |                               PLOTTING                                    |
 *---------------------------------------------------------------------------*


 Calculating interpolated band-structure

 Time to calculate interpolated band structure       2.819 (sec)

 Time for plotting             16.321 (sec)
 Total Execution Time          80.708 (sec)

 *===========================================================================*
 |                             TIMING INFORMATION                            |
 *===========================================================================*
 |    Tag                                                Ncalls      Time (s)|
 |---------------------------------------------------------------------------|
 |kmesh: get                                        :         1         1.438|
 |overlap: allocate                                 :         1         0.000|
 |overlap: read                                     :         1         1.039|
 |dis: main                                         :         1        34.915|
 |wann: main                                        :         1        26.909|
 |plot: main                                        :         1        16.321|
 *---------------------------------------------------------------------------*

 All done: wannier90 exiting
