
             +---------------------------------------------------+
             |                                                   |
             |                   WANNIER90                       |
             |                                                   |
             +---------------------------------------------------+
             |                                                   |
             |        Welcome to the Maximally-Localized         |
             |        Generalized Wannier Functions code         |
             |            http://www.wannier.org                 |
             |                                                   |
             |                                                   |
             |  Wannier90 Developer Group:                       |
             |    Giovanni Pizzi    (EPFL)                       |
             |    Valerio Vitale    (Cambridge)                  |
             |    David Vanderbilt  (Rutgers University)         |
             |    Nicola Marzari    (EPFL)                       |
             |    Ivo Souza         (Universidad del Pais Vasco) |
             |    Arash A. Mostofi  (Imperial College London)    |
             |    Jonathan R. Yates (University of Oxford)       |
             |                                                   |
             |  For the full list of Wannier90 3.x authors,      |
             |  please check the code documentation and the      |
             |  README on the GitHub page of the code            |
             |                                                   |
             |                                                   |
             |  Please cite                                      |
             |                                                   |
             |  [ref] "Wannier90 as a community code:            |
             |        new features and applications",            |
             |        G. Pizzi et al., J. Phys. Cond. Matt. 32,  |
             |        165902 (2020).                             |
             |        http://doi.org/10.1088/1361-648X/ab51ff    |
             |                                                   |
             |  in any publications arising from the use of      |
             |  this code. For the method please cite            |
             |                                                   |
             |  [ref] "Maximally Localized Generalised Wannier   |
             |         Functions for Composite Energy Bands"     |
             |         N. Marzari and D. Vanderbilt              |
             |         Phys. Rev. B 56 12847 (1997)              |
             |                                                   |
             |  [ref] "Maximally Localized Wannier Functions     |
             |         for Entangled Energy Bands"               |
             |         I. Souza, N. Marzari and D. Vanderbilt    |
             |         Phys. Rev. B 65 035109 (2001)             |
             |                                                   |
             |                                                   |
             | Copyright (c) 1996-2020                           |
             |        The Wannier90 Developer Group and          |
             |        individual contributors                    |
             |                                                   |
             |      Release: 3.1.0        5th March    2020      |
             |                                                   |
             | This program is free software; you can            |
             | redistribute it and/or modify it under the terms  |
             | of the GNU General Public License as published by |
             | the Free Software Foundation; either version 2 of |
             | the License, or (at your option) any later version|
             |                                                   |
             | This program is distributed in the hope that it   |
             | will be useful, but WITHOUT ANY WARRANTY; without |
             | even the implied warranty of MERCHANTABILITY or   |
             | FITNESS FOR A PARTICULAR PURPOSE. See the GNU     |
             | General Public License for more details.          |
             |                                                   |
             | You should have received a copy of the GNU General|
             | Public License along with this program; if not,   |
             | write to the Free Software Foundation, Inc.,      |
             | 675 Mass Ave, Cambridge, MA 02139, USA.           |
             |                                                   |
             +---------------------------------------------------+
             |    Execution started on  4Aug2023 at 11:53:54     |
             +---------------------------------------------------+
 
 ******************************************************************************
 * -> Using CODATA 2006 constant values                                       *
 *    (http://physics.nist.gov/cuu/Constants/index.html)                      *
 * -> Using Bohr value from CODATA                                            *
 ******************************************************************************
 

 Running in parallel on   8 CPUs


                                    ------
                                    SYSTEM
                                    ------

                              Lattice Vectors (Ang)
                    a_1     1.434996   1.434996   1.434996
                    a_2    -1.434996   1.434996   1.434996
                    a_3    -1.434996  -1.434996   1.434996

                   Unit Cell Volume:      11.81986  (Ang^3)

                        Reciprocal-Space Vectors (Ang^-1)
                    b_1     2.189269   0.000000   2.189269
                    b_2    -2.189269   2.189269   0.000000
                    b_3     0.000000  -2.189269   2.189269
  
 *----------------------------------------------------------------------------*
 |   Site       Fractional Coordinate          Cartesian Coordinate (Ang)     |
 +----------------------------------------------------------------------------+
 | Fe   1   0.00000   0.00000   0.00000   |    0.00000   0.00000   0.00000    |
 *----------------------------------------------------------------------------*
                                ------------
                                K-POINT GRID
                                ------------
  
             Grid size =  6 x  6 x  6      Total points =  216
  
  
 *---------------------------------- MAIN ------------------------------------*
 |  Number of Wannier Functions               :                 9             |
 |  Number of Objective Wannier Functions     :                 9             |
 |  Number of input Bloch states              :                15             |
 |  Output verbosity (1=low, 5=high)          :                 1             |
 |  Timing Level (1=low, 5=high)              :                 1             |
 |  Optimisation (0=memory, 3=speed)          :                 3             |
 |  Length Unit                               :               Ang             |
 |  Post-processing setup (write *.nnkp)      :                 F             |
 |  Using Gamma-only branch of algorithms     :                 F             |
 *----------------------------------------------------------------------------*
 *------------------------------- WANNIERISE ---------------------------------*
 |  Total number of iterations                :              5000             |
 |  Number of CG steps before reset           :               200             |
 |  Trial step length for line search         :             2.000             |
 |  Convergence tolerence                     :         0.100E-09             |
 |  Convergence window                        :                 3             |
 |  Iterations between writing output         :                 1             |
 |  Iterations between backing up to disk     :               100             |
 |  Write r^2_nm to file                      :                 F             |
 |  Write xyz WF centres to file              :                 F             |
 |  Write on-site energies <0n|H|0n> to file  :                 F             |
 |  Use guiding centre to control phases      :                 F             |
 |  Use phases for initial projections        :                 F             |
 *----------------------------------------------------------------------------*
 *------------------------------- DISENTANGLE --------------------------------*
 |  Using band disentanglement                :                 T             |
 |  Total number of iterations                :              5000             |
 |  Mixing ratio                              :             0.500             |
 |  Convergence tolerence                     :         1.000E-10             |
 |  Convergence window                        :                 3             |
 *----------------------------------------------------------------------------*
 *-------------------------------- PLOTTING ----------------------------------*
 |  Plotting interpolated bandstructure       :                 T             |
 |   Number of K-path sections                :                 6             |
 |   Divisions along first K-path section     :               100             |
 |   Output format                            :           gnuplot             |
 |   Output mode                              :               s-k             |
 *----------------------------------------------------------------------------*
 |   K-space path sections:                                                   |
 |    From: G       0.000  0.000  0.000     To: H       0.500  0.500 -0.500   |
 |    From: H       0.500  0.500 -0.500     To: N       0.500  0.000 -0.500   |
 |    From: N       0.500  0.000 -0.500     To: G       0.000  0.000  0.000   |
 |    From: G       0.000  0.000  0.000     To: P       0.750  0.250 -0.250   |
 |    From: P       0.750  0.250 -0.250     To: H       0.500  0.500 -0.500   |
 |    From: P       0.750  0.250 -0.250     To: N       0.500  0.000 -0.500   |
 *----------------------------------------------------------------------------*
 Time to read parameters        0.033 (sec)

 *---------------------------------- K-MESH ----------------------------------*
 +----------------------------------------------------------------------------+
 |                    Distance to Nearest-Neighbour Shells                    |
 |                    ------------------------------------                    |
 |          Shell             Distance (Ang^-1)          Multiplicity         |
 |          -----             -----------------          ------------         |
 |             1                   0.516016                     12            |
 |             2                   0.729756                      6            |
 |             3                   0.893765                     24            |
 |             4                   1.032031                     12            |
 |             5                   1.153846                     24            |
 |             6                   1.263975                      8            |
 |             7                   1.365249                     48            |
 |             8                   1.459513                      6            |
 |             9                   1.548047                     36            |
 |            10                   1.631785                     24            |
 |            11                   1.711430                     24            |
 |            12                   1.787531                     24            |
 |            13                   1.860521                     72            |
 |            14                   1.998520                     48            |
 |            15                   2.064062                     12            |
 |            16                   2.127587                     48            |
 |            17                   2.189269                     30            |
 |            18                   2.249260                     72            |
 |            19                   2.307692                     24            |
 |            20                   2.364681                     48            |
 |            21                   2.420328                     24            |
 |            22                   2.474724                     48            |
 |            23                   2.527950                      8            |
 |            24                   2.580078                     84            |
 |            25                   2.631174                     24            |
 |            26                   2.681296                     96            |
 |            27                   2.730498                     48            |
 |            28                   2.778829                     24            |
 |            29                   2.873053                     96            |
 |            30                   2.919025                      6            |
 |            31                   2.964284                     96            |
 |            32                   3.008862                     48            |
 |            33                   3.052790                     48            |
 |            34                   3.096094                     36            |
 |            35                   3.138800                    120            |
 |            36                   3.180934                     24            |
 +----------------------------------------------------------------------------+
 | The b-vectors are chosen automatically                                     |
 | The following shells are used:   1                                         |
 +----------------------------------------------------------------------------+
 |                        Shell   # Nearest-Neighbours                        |
 |                        -----   --------------------                        |
 |                          1              12                                 |
 +----------------------------------------------------------------------------+
 | Completeness relation is fully satisfied [Eq. (B1), PRB 56, 12847 (1997)]  |
 +----------------------------------------------------------------------------+
 |                  b_k Vectors (Ang^-1) and Weights (Ang^2)                  |
 |                  ----------------------------------------                  |
 |            No.         b_k(x)      b_k(y)      b_k(z)        w_b           |
 |            ---        --------------------------------     --------        |
 |             1         0.000000   -0.364878    0.364878     0.938889        |
 |             2        -0.364878    0.364878    0.000000     0.938889        |
 |             3        -0.364878    0.000000    0.364878     0.938889        |
 |             4         0.364878    0.000000    0.364878     0.938889        |
 |             5         0.000000    0.364878    0.364878     0.938889        |
 |             6         0.000000    0.364878   -0.364878     0.938889        |
 |             7         0.364878    0.364878    0.000000     0.938889        |
 |             8         0.364878   -0.364878    0.000000     0.938889        |
 |             9         0.364878    0.000000   -0.364878     0.938889        |
 |            10        -0.364878    0.000000   -0.364878     0.938889        |
 |            11        -0.364878   -0.364878    0.000000     0.938889        |
 |            12         0.000000   -0.364878   -0.364878     0.938889        |
 +----------------------------------------------------------------------------+
 |                           b_k Directions (Ang^-1)                          |
 |                           -----------------------                          |
 |            No.           x           y           z                         |
 |            ---        --------------------------------                     |
 |             1         0.000000   -0.364878    0.364878                     |
 |             2        -0.364878    0.364878    0.000000                     |
 |             3        -0.364878    0.000000    0.364878                     |
 |             4         0.364878    0.000000    0.364878                     |
 |             5         0.000000    0.364878    0.364878                     |
 |             6         0.364878    0.364878    0.000000                     |
 +----------------------------------------------------------------------------+
  
 Time to get kmesh              0.158 (sec)
 *============================================================================*
 |                              MEMORY ESTIMATE                               |
 |         Maximum RAM allocated during each phase of the calculation         |
 *============================================================================*
 |                        Disentanglement           13.46 Mb                  |
 |                            Wannierise:            8.96 Mb                  |
 |                          plot_wannier:            8.96 Mb                  |
 *----------------------------------------------------------------------------*
  
 Starting a new Wannier90 calculation ...


 Reading overlaps from Fe_dn.mmn    :  Created on  4Aug2023 at 11:51:48

 Reading projections from Fe_dn.amn :  Created on  4Aug2023 at 11:51:48

 Time to read overlaps          0.530 (sec)

 *------------------------------- DISENTANGLE --------------------------------*
 +----------------------------------------------------------------------------+
 |                              Energy  Windows                               |
 |                              ---------------                               |
 |                   Outer:    8.87137  to   65.64825  (eV)                   |
 |                   Inner:    8.87137  to   22.00000  (eV)                   |
 +----------------------------------------------------------------------------+
   Number of target bands to extract:    9

                   Unitarised projection of Wannier functions                  
                   ------------------------------------------                  
   A_mn = <psi_m|g_n> --> S = A.A^+ --> U = S^-1/2.A
   In dis_project... done
   Using an inner window (linner = T)
   In dis_proj_froz... done

                   Extraction of optimally-connected subspace                  
                   ------------------------------------------                  
 +---------------------------------------------------------------------+<-- DIS
 |  Iter     Omega_I(i-1)      Omega_I(i)      Delta (frac.)    Time   |<-- DIS
 +---------------------------------------------------------------------+<-- DIS
       1       6.12597722       5.54424435       1.049E-01      0.00    <-- DIS
       2       5.82972398       5.46047674       6.762E-02      0.00    <-- DIS
       3       5.64202031       5.41318005       4.227E-02      0.01    <-- DIS
       4       5.52671490       5.38442451       2.643E-02      0.01    <-- DIS
       5       5.45561699       5.36621320       1.666E-02      0.01    <-- DIS
       6       5.41132711       5.35433569       1.064E-02      0.01    <-- DIS
       7       5.38334131       5.34639388       6.911E-03      0.02    <-- DIS
       8       5.36535446       5.34096472       4.567E-03      0.02    <-- DIS
       9       5.35357493       5.33717841       3.072E-03      0.02    <-- DIS
      10       5.34570747       5.33448986       2.103E-03      0.03    <-- DIS
      11       5.34034837       5.33254970       1.462E-03      0.03    <-- DIS
      12       5.33662783       5.33112917       1.031E-03      0.03    <-- DIS
      13       5.33399849       5.33007549       7.360E-04      0.03    <-- DIS
      14       5.33210989       5.32928466       5.301E-04      0.04    <-- DIS
      15       5.33073348       5.32868465       3.845E-04      0.04    <-- DIS
      16       5.32971733       5.32822467       2.801E-04      0.04    <-- DIS
      17       5.32895849       5.32786844       2.046E-04      0.04    <-- DIS
      18       5.32838591       5.32758961       1.495E-04      0.05    <-- DIS
      19       5.32794966       5.32736884       1.090E-04      0.05    <-- DIS
      20       5.32761410       5.32719175       7.928E-05      0.05    <-- DIS
      21       5.32735341       5.32704753       5.742E-05      0.06    <-- DIS
      22       5.32714859       5.32692800       4.141E-05      0.06    <-- DIS
      23       5.32698556       5.32682689       2.979E-05      0.06    <-- DIS
      24       5.32685371       5.32673937       2.147E-05      0.06    <-- DIS
      25       5.32674501       5.32666168       1.564E-05      0.07    <-- DIS
      26       5.32665332       5.32659088       1.172E-05      0.07    <-- DIS
      27       5.32657392       5.32652468       9.244E-06      0.07    <-- DIS
      28       5.32650315       5.32646127       7.863E-06      0.08    <-- DIS
      29       5.32643817       5.32639921       7.315E-06      0.08    <-- DIS
      30       5.32637677       5.32633740       7.393E-06      0.08    <-- DIS
      31       5.32631723       5.32627497       7.936E-06      0.08    <-- DIS
      32       5.32625824       5.32621128       8.817E-06      0.09    <-- DIS
      33       5.32619876       5.32614585       9.934E-06      0.09    <-- DIS
      34       5.32613807       5.32607839       1.120E-05      0.09    <-- DIS
      35       5.32607561       5.32600871       1.256E-05      0.09    <-- DIS
      36       5.32601104       5.32593677       1.395E-05      0.10    <-- DIS
      37       5.32594416       5.32586260       1.531E-05      0.10    <-- DIS
      38       5.32587490       5.32578636       1.662E-05      0.10    <-- DIS
      39       5.32580330       5.32570827       1.785E-05      0.11    <-- DIS
      40       5.32572953       5.32562861       1.895E-05      0.11    <-- DIS
      41       5.32565381       5.32554773       1.992E-05      0.11    <-- DIS
      42       5.32557642       5.32546601       2.073E-05      0.11    <-- DIS
      43       5.32549772       5.32538384       2.138E-05      0.12    <-- DIS
      44       5.32541810       5.32530164       2.187E-05      0.12    <-- DIS
      45       5.32533795       5.32521982       2.218E-05      0.12    <-- DIS
      46       5.32525768       5.32513877       2.233E-05      0.12    <-- DIS
      47       5.32517771       5.32505886       2.232E-05      0.13    <-- DIS
      48       5.32509844       5.32498045       2.216E-05      0.13    <-- DIS
      49       5.32502023       5.32490384       2.186E-05      0.13    <-- DIS
      50       5.32494343       5.32482930       2.143E-05      0.14    <-- DIS
      51       5.32486834       5.32475706       2.090E-05      0.14    <-- DIS
      52       5.32479525       5.32468731       2.027E-05      0.14    <-- DIS
      53       5.32472437       5.32462018       1.957E-05      0.14    <-- DIS
      54       5.32465589       5.32455579       1.880E-05      0.15    <-- DIS
      55       5.32458995       5.32449419       1.798E-05      0.15    <-- DIS
      56       5.32452668       5.32443544       1.714E-05      0.15    <-- DIS
      57       5.32446612       5.32437953       1.626E-05      0.15    <-- DIS
      58       5.32440834       5.32432643       1.538E-05      0.16    <-- DIS
      59       5.32435332       5.32427611       1.450E-05      0.16    <-- DIS
      60       5.32430107       5.32422851       1.363E-05      0.16    <-- DIS
      61       5.32425153       5.32418355       1.277E-05      0.17    <-- DIS
      62       5.32420466       5.32414113       1.193E-05      0.17    <-- DIS
      63       5.32416037       5.32410117       1.112E-05      0.17    <-- DIS
      64       5.32411860       5.32406356       1.034E-05      0.17    <-- DIS
      65       5.32407924       5.32402820       9.587E-06      0.18    <-- DIS
      66       5.32404219       5.32399496       8.871E-06      0.18    <-- DIS
      67       5.32400736       5.32396375       8.191E-06      0.18    <-- DIS
      68       5.32397464       5.32393446       7.547E-06      0.19    <-- DIS
      69       5.32394392       5.32390697       6.940E-06      0.19    <-- DIS
      70       5.32391509       5.32388119       6.368E-06      0.19    <-- DIS
      71       5.32388805       5.32385701       5.831E-06      0.19    <-- DIS
      72       5.32386270       5.32383433       5.329E-06      0.20    <-- DIS
      73       5.32383894       5.32381307       4.860E-06      0.20    <-- DIS
      74       5.32381668       5.32379313       4.423E-06      0.20    <-- DIS
      75       5.32379581       5.32377442       4.017E-06      0.20    <-- DIS
      76       5.32377625       5.32375687       3.640E-06      0.21    <-- DIS
      77       5.32375793       5.32374041       3.291E-06      0.21    <-- DIS
      78       5.32374075       5.32372495       2.968E-06      0.21    <-- DIS
      79       5.32372465       5.32371044       2.669E-06      0.22    <-- DIS
      80       5.32370955       5.32369680       2.394E-06      0.22    <-- DIS
      81       5.32369538       5.32368399       2.141E-06      0.22    <-- DIS
      82       5.32368209       5.32367194       1.908E-06      0.22    <-- DIS
      83       5.32366962       5.32366060       1.693E-06      0.23    <-- DIS
      84       5.32365791       5.32364993       1.497E-06      0.23    <-- DIS
      85       5.32364690       5.32363989       1.317E-06      0.23    <-- DIS
      86       5.32363655       5.32363041       1.153E-06      0.23    <-- DIS
      87       5.32362682       5.32362148       1.003E-06      0.24    <-- DIS
      88       5.32361766       5.32361306       8.655E-07      0.24    <-- DIS
      89       5.32360904       5.32360510       7.407E-07      0.24    <-- DIS
      90       5.32360091       5.32359757       6.271E-07      0.25    <-- DIS
      91       5.32359325       5.32359046       5.240E-07      0.25    <-- DIS
      92       5.32358602       5.32358373       4.305E-07      0.25    <-- DIS
      93       5.32357919       5.32357735       3.459E-07      0.25    <-- DIS
      94       5.32357274       5.32357130       2.694E-07      0.26    <-- DIS
      95       5.32356664       5.32356557       2.004E-07      0.26    <-- DIS
      96       5.32356086       5.32356012       1.384E-07      0.26    <-- DIS
      97       5.32355539       5.32355495       8.272E-08      0.27    <-- DIS
      98       5.32355020       5.32355003       3.286E-08      0.27    <-- DIS
      99       5.32354528       5.32354534      -1.166E-08      0.27    <-- DIS
     100       5.32354061       5.32354088      -5.129E-08      0.27    <-- DIS
     101       5.32353616       5.32353662      -8.643E-08      0.28    <-- DIS
     102       5.32353194       5.32353256      -1.175E-07      0.28    <-- DIS
     103       5.32352791       5.32352868      -1.448E-07      0.28    <-- DIS
     104       5.32352408       5.32352498      -1.687E-07      0.28    <-- DIS
     105       5.32352042       5.32352143      -1.894E-07      0.29    <-- DIS
     106       5.32351693       5.32351803      -2.074E-07      0.29    <-- DIS
     107       5.32351359       5.32351477      -2.227E-07      0.29    <-- DIS
     108       5.32351040       5.32351165      -2.357E-07      0.30    <-- DIS
     109       5.32350734       5.32350865      -2.466E-07      0.30    <-- DIS
     110       5.32350441       5.32350577      -2.556E-07      0.30    <-- DIS
     111       5.32350160       5.32350300      -2.628E-07      0.30    <-- DIS
     112       5.32349890       5.32350033      -2.684E-07      0.31    <-- DIS
     113       5.32349631       5.32349776      -2.726E-07      0.31    <-- DIS
     114       5.32349381       5.32349528      -2.756E-07      0.31    <-- DIS
     115       5.32349141       5.32349289      -2.774E-07      0.32    <-- DIS
     116       5.32348910       5.32349058      -2.781E-07      0.32    <-- DIS
     117       5.32348687       5.32348835      -2.780E-07      0.32    <-- DIS
     118       5.32348472       5.32348619      -2.770E-07      0.32    <-- DIS
     119       5.32348264       5.32348411      -2.753E-07      0.33    <-- DIS
     120       5.32348063       5.32348208      -2.729E-07      0.33    <-- DIS
     121       5.32347869       5.32348012      -2.700E-07      0.33    <-- DIS
     122       5.32347680       5.32347822      -2.666E-07      0.33    <-- DIS
     123       5.32347498       5.32347638      -2.627E-07      0.34    <-- DIS
     124       5.32347321       5.32347458      -2.585E-07      0.34    <-- DIS
     125       5.32347149       5.32347284      -2.540E-07      0.34    <-- DIS
     126       5.32346982       5.32347115      -2.492E-07      0.35    <-- DIS
     127       5.32346820       5.32346950      -2.441E-07      0.35    <-- DIS
     128       5.32346662       5.32346789      -2.389E-07      0.35    <-- DIS
     129       5.32346509       5.32346633      -2.335E-07      0.35    <-- DIS
     130       5.32346359       5.32346480      -2.280E-07      0.36    <-- DIS
     131       5.32346213       5.32346332      -2.224E-07      0.36    <-- DIS
     132       5.32346071       5.32346187      -2.168E-07      0.36    <-- DIS
     133       5.32345933       5.32346045      -2.111E-07      0.36    <-- DIS
     134       5.32345797       5.32345907      -2.053E-07      0.37    <-- DIS
     135       5.32345665       5.32345771      -1.996E-07      0.37    <-- DIS
     136       5.32345536       5.32345639      -1.939E-07      0.37    <-- DIS
     137       5.32345410       5.32345510      -1.883E-07      0.38    <-- DIS
     138       5.32345286       5.32345383      -1.826E-07      0.38    <-- DIS
     139       5.32345165       5.32345259      -1.771E-07      0.38    <-- DIS
     140       5.32345047       5.32345138      -1.716E-07      0.38    <-- DIS
     141       5.32344931       5.32345019      -1.662E-07      0.39    <-- DIS
     142       5.32344817       5.32344903      -1.608E-07      0.39    <-- DIS
     143       5.32344705       5.32344788      -1.556E-07      0.39    <-- DIS
     144       5.32344596       5.32344676      -1.504E-07      0.40    <-- DIS
     145       5.32344489       5.32344566      -1.454E-07      0.40    <-- DIS
     146       5.32344384       5.32344458      -1.405E-07      0.40    <-- DIS
     147       5.32344280       5.32344352      -1.357E-07      0.40    <-- DIS
     148       5.32344179       5.32344248      -1.310E-07      0.41    <-- DIS
     149       5.32344079       5.32344146      -1.264E-07      0.41    <-- DIS
     150       5.32343981       5.32344046      -1.219E-07      0.41    <-- DIS
     151       5.32343885       5.32343947      -1.176E-07      0.41    <-- DIS
     152       5.32343790       5.32343850      -1.133E-07      0.42    <-- DIS
     153       5.32343697       5.32343755      -1.092E-07      0.42    <-- DIS
     154       5.32343605       5.32343661      -1.053E-07      0.42    <-- DIS
     155       5.32343515       5.32343569      -1.014E-07      0.43    <-- DIS
     156       5.32343426       5.32343478      -9.766E-08      0.43    <-- DIS
     157       5.32343339       5.32343389      -9.404E-08      0.43    <-- DIS
     158       5.32343253       5.32343301      -9.054E-08      0.43    <-- DIS
     159       5.32343168       5.32343215      -8.715E-08      0.44    <-- DIS
     160       5.32343085       5.32343130      -8.388E-08      0.44    <-- DIS
     161       5.32343003       5.32343046      -8.072E-08      0.44    <-- DIS
     162       5.32342922       5.32342963      -7.768E-08      0.45    <-- DIS
     163       5.32342842       5.32342882      -7.474E-08      0.45    <-- DIS
     164       5.32342764       5.32342802      -7.192E-08      0.45    <-- DIS
     165       5.32342686       5.32342723      -6.919E-08      0.46    <-- DIS
     166       5.32342610       5.32342645      -6.658E-08      0.46    <-- DIS
     167       5.32342535       5.32342569      -6.406E-08      0.47    <-- DIS
     168       5.32342461       5.32342493      -6.164E-08      0.47    <-- DIS
     169       5.32342388       5.32342419      -5.932E-08      0.47    <-- DIS
     170       5.32342315       5.32342346      -5.709E-08      0.47    <-- DIS
     171       5.32342244       5.32342274      -5.496E-08      0.48    <-- DIS
     172       5.32342174       5.32342202      -5.291E-08      0.48    <-- DIS
     173       5.32342105       5.32342132      -5.095E-08      0.48    <-- DIS
     174       5.32342037       5.32342063      -4.908E-08      0.49    <-- DIS
     175       5.32341970       5.32341995      -4.729E-08      0.49    <-- DIS
     176       5.32341903       5.32341927      -4.558E-08      0.49    <-- DIS
     177       5.32341838       5.32341861      -4.395E-08      0.50    <-- DIS
     178       5.32341773       5.32341796      -4.239E-08      0.50    <-- DIS
     179       5.32341709       5.32341731      -4.090E-08      0.50    <-- DIS
     180       5.32341646       5.32341667      -3.949E-08      0.50    <-- DIS
     181       5.32341584       5.32341604      -3.815E-08      0.51    <-- DIS
     182       5.32341523       5.32341543      -3.687E-08      0.51    <-- DIS
     183       5.32341462       5.32341481      -3.565E-08      0.51    <-- DIS
     184       5.32341403       5.32341421      -3.450E-08      0.51    <-- DIS
     185       5.32341344       5.32341362      -3.341E-08      0.52    <-- DIS
     186       5.32341286       5.32341303      -3.238E-08      0.52    <-- DIS
     187       5.32341228       5.32341245      -3.140E-08      0.52    <-- DIS
     188       5.32341172       5.32341188      -3.048E-08      0.53    <-- DIS
     189       5.32341116       5.32341132      -2.960E-08      0.53    <-- DIS
     190       5.32341061       5.32341076      -2.878E-08      0.53    <-- DIS
     191       5.32341006       5.32341021      -2.801E-08      0.54    <-- DIS
     192       5.32340952       5.32340967      -2.728E-08      0.54    <-- DIS
     193       5.32340899       5.32340913      -2.660E-08      0.54    <-- DIS
     194       5.32340847       5.32340861      -2.597E-08      0.54    <-- DIS
     195       5.32340795       5.32340809      -2.537E-08      0.55    <-- DIS
     196       5.32340744       5.32340757      -2.482E-08      0.55    <-- DIS
     197       5.32340694       5.32340707      -2.430E-08      0.55    <-- DIS
     198       5.32340644       5.32340657      -2.382E-08      0.56    <-- DIS
     199       5.32340595       5.32340607      -2.337E-08      0.56    <-- DIS
     200       5.32340546       5.32340559      -2.296E-08      0.56    <-- DIS
     201       5.32340499       5.32340511      -2.258E-08      0.56    <-- DIS
     202       5.32340451       5.32340463      -2.224E-08      0.57    <-- DIS
     203       5.32340405       5.32340416      -2.192E-08      0.57    <-- DIS
     204       5.32340359       5.32340370      -2.163E-08      0.57    <-- DIS
     205       5.32340313       5.32340325      -2.137E-08      0.58    <-- DIS
     206       5.32340268       5.32340280      -2.114E-08      0.58    <-- DIS
     207       5.32340224       5.32340235      -2.093E-08      0.58    <-- DIS
     208       5.32340180       5.32340192      -2.074E-08      0.58    <-- DIS
     209       5.32340137       5.32340148      -2.058E-08      0.59    <-- DIS
     210       5.32340095       5.32340106      -2.044E-08      0.59    <-- DIS
     211       5.32340053       5.32340064      -2.032E-08      0.59    <-- DIS
     212       5.32340011       5.32340022      -2.022E-08      0.60    <-- DIS
     213       5.32339970       5.32339981      -2.013E-08      0.60    <-- DIS
     214       5.32339930       5.32339941      -2.007E-08      0.60    <-- DIS
     215       5.32339890       5.32339901      -2.002E-08      0.60    <-- DIS
     216       5.32339851       5.32339861      -1.999E-08      0.61    <-- DIS
     217       5.32339812       5.32339822      -1.998E-08      0.61    <-- DIS
     218       5.32339773       5.32339784      -1.998E-08      0.61    <-- DIS
     219       5.32339735       5.32339746      -1.999E-08      0.61    <-- DIS
     220       5.32339698       5.32339709      -2.001E-08      0.62    <-- DIS
     221       5.32339661       5.32339672      -2.005E-08      0.62    <-- DIS
     222       5.32339625       5.32339635      -2.010E-08      0.62    <-- DIS
     223       5.32339589       5.32339599      -2.016E-08      0.63    <-- DIS
     224       5.32339553       5.32339564      -2.023E-08      0.63    <-- DIS
     225       5.32339518       5.32339529      -2.031E-08      0.63    <-- DIS
     226       5.32339484       5.32339494      -2.040E-08      0.63    <-- DIS
     227       5.32339449       5.32339460      -2.050E-08      0.64    <-- DIS
     228       5.32339416       5.32339427      -2.060E-08      0.64    <-- DIS
     229       5.32339383       5.32339394      -2.072E-08      0.64    <-- DIS
     230       5.32339350       5.32339361      -2.083E-08      0.65    <-- DIS
     231       5.32339317       5.32339329      -2.096E-08      0.65    <-- DIS
     232       5.32339285       5.32339297      -2.109E-08      0.65    <-- DIS
     233       5.32339254       5.32339265      -2.123E-08      0.65    <-- DIS
     234       5.32339223       5.32339234      -2.137E-08      0.66    <-- DIS
     235       5.32339192       5.32339204      -2.152E-08      0.66    <-- DIS
     236       5.32339162       5.32339173      -2.167E-08      0.66    <-- DIS
     237       5.32339132       5.32339144      -2.182E-08      0.66    <-- DIS
     238       5.32339102       5.32339114      -2.198E-08      0.67    <-- DIS
     239       5.32339073       5.32339085      -2.214E-08      0.67    <-- DIS
     240       5.32339045       5.32339056      -2.230E-08      0.67    <-- DIS
     241       5.32339016       5.32339028      -2.247E-08      0.68    <-- DIS
     242       5.32338988       5.32339000      -2.263E-08      0.68    <-- DIS
     243       5.32338961       5.32338973      -2.280E-08      0.68    <-- DIS
     244       5.32338933       5.32338946      -2.297E-08      0.68    <-- DIS
     245       5.32338907       5.32338919      -2.314E-08      0.69    <-- DIS
     246       5.32338880       5.32338892      -2.332E-08      0.69    <-- DIS
     247       5.32338854       5.32338866      -2.349E-08      0.69    <-- DIS
     248       5.32338828       5.32338841      -2.366E-08      0.69    <-- DIS
     249       5.32338803       5.32338815      -2.383E-08      0.70    <-- DIS
     250       5.32338777       5.32338790      -2.401E-08      0.70    <-- DIS
     251       5.32338753       5.32338766      -2.418E-08      0.70    <-- DIS
     252       5.32338728       5.32338741      -2.435E-08      0.71    <-- DIS
     253       5.32338704       5.32338717      -2.452E-08      0.71    <-- DIS
     254       5.32338680       5.32338693      -2.470E-08      0.71    <-- DIS
     255       5.32338657       5.32338670      -2.487E-08      0.71    <-- DIS
     256       5.32338634       5.32338647      -2.503E-08      0.72    <-- DIS
     257       5.32338611       5.32338624      -2.520E-08      0.72    <-- DIS
     258       5.32338588       5.32338602      -2.537E-08      0.72    <-- DIS
     259       5.32338566       5.32338580      -2.553E-08      0.72    <-- DIS
     260       5.32338544       5.32338558      -2.569E-08      0.73    <-- DIS
     261       5.32338522       5.32338536      -2.585E-08      0.73    <-- DIS
     262       5.32338501       5.32338515      -2.601E-08      0.73    <-- DIS
     263       5.32338480       5.32338494      -2.617E-08      0.74    <-- DIS
     264       5.32338459       5.32338473      -2.632E-08      0.74    <-- DIS
     265       5.32338439       5.32338453      -2.648E-08      0.74    <-- DIS
     266       5.32338419       5.32338433      -2.663E-08      0.74    <-- DIS
     267       5.32338399       5.32338413      -2.677E-08      0.75    <-- DIS
     268       5.32338379       5.32338393      -2.692E-08      0.75    <-- DIS
     269       5.32338360       5.32338374      -2.706E-08      0.75    <-- DIS
     270       5.32338341       5.32338355      -2.720E-08      0.76    <-- DIS
     271       5.32338322       5.32338336      -2.733E-08      0.76    <-- DIS
     272       5.32338303       5.32338318      -2.747E-08      0.76    <-- DIS
     273       5.32338285       5.32338299      -2.760E-08      0.76    <-- DIS
     274       5.32338267       5.32338281      -2.773E-08      0.77    <-- DIS
     275       5.32338249       5.32338264      -2.785E-08      0.77    <-- DIS
     276       5.32338231       5.32338246      -2.797E-08      0.77    <-- DIS
     277       5.32338214       5.32338229      -2.809E-08      0.77    <-- DIS
     278       5.32338197       5.32338212      -2.821E-08      0.78    <-- DIS
     279       5.32338180       5.32338195      -2.832E-08      0.78    <-- DIS
     280       5.32338163       5.32338178      -2.843E-08      0.78    <-- DIS
     281       5.32338147       5.32338162      -2.854E-08      0.79    <-- DIS
     282       5.32338131       5.32338146      -2.864E-08      0.79    <-- DIS
     283       5.32338115       5.32338130      -2.874E-08      0.79    <-- DIS
     284       5.32338099       5.32338114      -2.884E-08      0.79    <-- DIS
     285       5.32338083       5.32338099      -2.893E-08      0.80    <-- DIS
     286       5.32338068       5.32338084      -2.902E-08      0.80    <-- DIS
     287       5.32338053       5.32338069      -2.911E-08      0.80    <-- DIS
     288       5.32338038       5.32338054      -2.920E-08      0.80    <-- DIS
     289       5.32338023       5.32338039      -2.928E-08      0.81    <-- DIS
     290       5.32338009       5.32338025      -2.936E-08      0.81    <-- DIS
     291       5.32337995       5.32338010      -2.943E-08      0.81    <-- DIS
     292       5.32337981       5.32337996      -2.950E-08      0.82    <-- DIS
     293       5.32337967       5.32337983      -2.957E-08      0.82    <-- DIS
     294       5.32337953       5.32337969      -2.963E-08      0.82    <-- DIS
     295       5.32337940       5.32337955      -2.970E-08      0.82    <-- DIS
     296       5.32337926       5.32337942      -2.976E-08      0.83    <-- DIS
     297       5.32337913       5.32337929      -2.981E-08      0.83    <-- DIS
     298       5.32337900       5.32337916      -2.986E-08      0.83    <-- DIS
     299       5.32337888       5.32337904      -2.991E-08      0.83    <-- DIS
     300       5.32337875       5.32337891      -2.996E-08      0.84    <-- DIS
     301       5.32337863       5.32337879      -3.000E-08      0.84    <-- DIS
     302       5.32337850       5.32337866      -3.004E-08      0.84    <-- DIS
     303       5.32337838       5.32337854      -3.008E-08      0.85    <-- DIS
     304       5.32337827       5.32337843      -3.011E-08      0.85    <-- DIS
     305       5.32337815       5.32337831      -3.014E-08      0.85    <-- DIS
     306       5.32337803       5.32337819      -3.017E-08      0.85    <-- DIS
     307       5.32337792       5.32337808      -3.020E-08      0.86    <-- DIS
     308       5.32337781       5.32337797      -3.022E-08      0.86    <-- DIS
     309       5.32337770       5.32337786      -3.024E-08      0.86    <-- DIS
     310       5.32337759       5.32337775      -3.026E-08      0.87    <-- DIS
     311       5.32337748       5.32337764      -3.027E-08      0.87    <-- DIS
     312       5.32337737       5.32337754      -3.028E-08      0.87    <-- DIS
     313       5.32337727       5.32337743      -3.029E-08      0.87    <-- DIS
     314       5.32337717       5.32337733      -3.029E-08      0.88    <-- DIS
     315       5.32337707       5.32337723      -3.030E-08      0.88    <-- DIS
     316       5.32337697       5.32337713      -3.030E-08      0.88    <-- DIS
     317       5.32337687       5.32337703      -3.029E-08      0.89    <-- DIS
     318       5.32337677       5.32337693      -3.029E-08      0.89    <-- DIS
     319       5.32337668       5.32337684      -3.028E-08      0.89    <-- DIS
     320       5.32337658       5.32337674      -3.027E-08      0.89    <-- DIS
     321       5.32337649       5.32337665      -3.026E-08      0.90    <-- DIS
     322       5.32337640       5.32337656      -3.024E-08      0.90    <-- DIS
     323       5.32337631       5.32337647      -3.022E-08      0.90    <-- DIS
     324       5.32337622       5.32337638      -3.020E-08      0.91    <-- DIS
     325       5.32337613       5.32337629      -3.018E-08      0.91    <-- DIS
     326       5.32337604       5.32337620      -3.016E-08      0.91    <-- DIS
     327       5.32337596       5.32337612      -3.013E-08      0.91    <-- DIS
     328       5.32337587       5.32337603      -3.010E-08      0.92    <-- DIS
     329       5.32337579       5.32337595      -3.007E-08      0.92    <-- DIS
     330       5.32337571       5.32337587      -3.003E-08      0.92    <-- DIS
     331       5.32337563       5.32337579      -3.000E-08      0.93    <-- DIS
     332       5.32337555       5.32337571      -2.996E-08      0.93    <-- DIS
     333       5.32337547       5.32337563      -2.992E-08      0.93    <-- DIS
     334       5.32337539       5.32337555      -2.988E-08      0.93    <-- DIS
     335       5.32337532       5.32337548      -2.983E-08      0.94    <-- DIS
     336       5.32337524       5.32337540      -2.978E-08      0.94    <-- DIS
     337       5.32337517       5.32337533      -2.974E-08      0.94    <-- DIS
     338       5.32337510       5.32337526      -2.969E-08      0.94    <-- DIS
     339       5.32337503       5.32337518      -2.963E-08      0.95    <-- DIS
     340       5.32337496       5.32337511      -2.958E-08      0.95    <-- DIS
     341       5.32337489       5.32337504      -2.952E-08      0.95    <-- DIS
     342       5.32337482       5.32337497      -2.947E-08      0.96    <-- DIS
     343       5.32337475       5.32337491      -2.941E-08      0.96    <-- DIS
     344       5.32337468       5.32337484      -2.934E-08      0.96    <-- DIS
     345       5.32337462       5.32337477      -2.928E-08      0.96    <-- DIS
     346       5.32337455       5.32337471      -2.922E-08      0.97    <-- DIS
     347       5.32337449       5.32337465      -2.915E-08      0.97    <-- DIS
     348       5.32337443       5.32337458      -2.908E-08      0.97    <-- DIS
     349       5.32337437       5.32337452      -2.901E-08      0.97    <-- DIS
     350       5.32337430       5.32337446      -2.894E-08      0.98    <-- DIS
     351       5.32337424       5.32337440      -2.887E-08      0.98    <-- DIS
     352       5.32337419       5.32337434      -2.880E-08      0.98    <-- DIS
     353       5.32337413       5.32337428      -2.872E-08      0.99    <-- DIS
     354       5.32337407       5.32337422      -2.865E-08      0.99    <-- DIS
     355       5.32337401       5.32337417      -2.857E-08      0.99    <-- DIS
     356       5.32337396       5.32337411      -2.849E-08      0.99    <-- DIS
     357       5.32337390       5.32337405      -2.841E-08      1.00    <-- DIS
     358       5.32337385       5.32337400      -2.833E-08      1.00    <-- DIS
     359       5.32337380       5.32337395      -2.824E-08      1.00    <-- DIS
     360       5.32337374       5.32337389      -2.816E-08      1.01    <-- DIS
     361       5.32337369       5.32337384      -2.807E-08      1.01    <-- DIS
     362       5.32337364       5.32337379      -2.799E-08      1.01    <-- DIS
     363       5.32337359       5.32337374      -2.790E-08      1.01    <-- DIS
     364       5.32337354       5.32337369      -2.781E-08      1.02    <-- DIS
     365       5.32337349       5.32337364      -2.772E-08      1.02    <-- DIS
     366       5.32337344       5.32337359      -2.763E-08      1.02    <-- DIS
     367       5.32337340       5.32337354      -2.754E-08      1.03    <-- DIS
     368       5.32337335       5.32337350      -2.744E-08      1.03    <-- DIS
     369       5.32337330       5.32337345      -2.735E-08      1.03    <-- DIS
     370       5.32337326       5.32337340      -2.725E-08      1.03    <-- DIS
     371       5.32337321       5.32337336      -2.716E-08      1.04    <-- DIS
     372       5.32337317       5.32337331      -2.706E-08      1.04    <-- DIS
     373       5.32337313       5.32337327      -2.696E-08      1.04    <-- DIS
     374       5.32337308       5.32337323      -2.687E-08      1.04    <-- DIS
     375       5.32337304       5.32337318      -2.677E-08      1.05    <-- DIS
     376       5.32337300       5.32337314      -2.667E-08      1.05    <-- DIS
     377       5.32337296       5.32337310      -2.657E-08      1.05    <-- DIS
     378       5.32337292       5.32337306      -2.646E-08      1.06    <-- DIS
     379       5.32337288       5.32337302      -2.636E-08      1.06    <-- DIS
     380       5.32337284       5.32337298      -2.626E-08      1.06    <-- DIS
     381       5.32337280       5.32337294      -2.616E-08      1.06    <-- DIS
     382       5.32337276       5.32337290      -2.605E-08      1.07    <-- DIS
     383       5.32337273       5.32337287      -2.595E-08      1.07    <-- DIS
     384       5.32337269       5.32337283      -2.584E-08      1.07    <-- DIS
     385       5.32337265       5.32337279      -2.574E-08      1.07    <-- DIS
     386       5.32337262       5.32337276      -2.563E-08      1.08    <-- DIS
     387       5.32337258       5.32337272      -2.552E-08      1.08    <-- DIS
     388       5.32337255       5.32337268      -2.541E-08      1.08    <-- DIS
     389       5.32337252       5.32337265      -2.531E-08      1.09    <-- DIS
     390       5.32337248       5.32337262      -2.520E-08      1.09    <-- DIS
     391       5.32337245       5.32337258      -2.509E-08      1.09    <-- DIS
     392       5.32337242       5.32337255      -2.498E-08      1.09    <-- DIS
     393       5.32337238       5.32337252      -2.487E-08      1.10    <-- DIS
     394       5.32337235       5.32337248      -2.476E-08      1.10    <-- DIS
     395       5.32337232       5.32337245      -2.465E-08      1.10    <-- DIS
     396       5.32337229       5.32337242      -2.454E-08      1.10    <-- DIS
     397       5.32337226       5.32337239      -2.443E-08      1.11    <-- DIS
     398       5.32337223       5.32337236      -2.432E-08      1.11    <-- DIS
     399       5.32337220       5.32337233      -2.420E-08      1.11    <-- DIS
     400       5.32337217       5.32337230      -2.409E-08      1.12    <-- DIS
     401       5.32337214       5.32337227      -2.398E-08      1.12    <-- DIS
     402       5.32337212       5.32337224      -2.387E-08      1.12    <-- DIS
     403       5.32337209       5.32337221      -2.375E-08      1.12    <-- DIS
     404       5.32337206       5.32337219      -2.364E-08      1.13    <-- DIS
     405       5.32337203       5.32337216      -2.353E-08      1.13    <-- DIS
     406       5.32337201       5.32337213      -2.341E-08      1.13    <-- DIS
     407       5.32337198       5.32337211      -2.330E-08      1.13    <-- DIS
     408       5.32337196       5.32337208      -2.319E-08      1.14    <-- DIS
     409       5.32337193       5.32337205      -2.307E-08      1.14    <-- DIS
     410       5.32337191       5.32337203      -2.296E-08      1.14    <-- DIS
     411       5.32337188       5.32337200      -2.284E-08      1.15    <-- DIS
     412       5.32337186       5.32337198      -2.273E-08      1.15    <-- DIS
     413       5.32337183       5.32337195      -2.262E-08      1.15    <-- DIS
     414       5.32337181       5.32337193      -2.250E-08      1.15    <-- DIS
     415       5.32337179       5.32337191      -2.239E-08      1.16    <-- DIS
     416       5.32337176       5.32337188      -2.227E-08      1.16    <-- DIS
     417       5.32337174       5.32337186      -2.216E-08      1.16    <-- DIS
     418       5.32337172       5.32337184      -2.204E-08      1.16    <-- DIS
     419       5.32337170       5.32337181      -2.193E-08      1.17    <-- DIS
     420       5.32337168       5.32337179      -2.181E-08      1.17    <-- DIS
     421       5.32337166       5.32337177      -2.170E-08      1.17    <-- DIS
     422       5.32337163       5.32337175      -2.158E-08      1.18    <-- DIS
     423       5.32337161       5.32337173      -2.147E-08      1.18    <-- DIS
     424       5.32337159       5.32337171      -2.135E-08      1.18    <-- DIS
     425       5.32337157       5.32337169      -2.124E-08      1.18    <-- DIS
     426       5.32337155       5.32337167      -2.113E-08      1.19    <-- DIS
     427       5.32337154       5.32337165      -2.101E-08      1.19    <-- DIS
     428       5.32337152       5.32337163      -2.090E-08      1.19    <-- DIS
     429       5.32337150       5.32337161      -2.078E-08      1.19    <-- DIS
     430       5.32337148       5.32337159      -2.067E-08      1.20    <-- DIS
     431       5.32337146       5.32337157      -2.055E-08      1.20    <-- DIS
     432       5.32337144       5.32337155      -2.044E-08      1.20    <-- DIS
     433       5.32337143       5.32337153      -2.033E-08      1.21    <-- DIS
     434       5.32337141       5.32337152      -2.021E-08      1.21    <-- DIS
     435       5.32337139       5.32337150      -2.010E-08      1.21    <-- DIS
     436       5.32337137       5.32337148      -1.999E-08      1.21    <-- DIS
     437       5.32337136       5.32337146      -1.987E-08      1.22    <-- DIS
     438       5.32337134       5.32337145      -1.976E-08      1.22    <-- DIS
     439       5.32337133       5.32337143      -1.965E-08      1.22    <-- DIS
     440       5.32337131       5.32337141      -1.953E-08      1.22    <-- DIS
     441       5.32337129       5.32337140      -1.942E-08      1.23    <-- DIS
     442       5.32337128       5.32337138      -1.931E-08      1.23    <-- DIS
     443       5.32337126       5.32337137      -1.920E-08      1.23    <-- DIS
     444       5.32337125       5.32337135      -1.909E-08      1.24    <-- DIS
     445       5.32337123       5.32337134      -1.897E-08      1.24    <-- DIS
     446       5.32337122       5.32337132      -1.886E-08      1.24    <-- DIS
     447       5.32337121       5.32337131      -1.875E-08      1.24    <-- DIS
     448       5.32337119       5.32337129      -1.864E-08      1.25    <-- DIS
     449       5.32337118       5.32337128      -1.853E-08      1.25    <-- DIS
     450       5.32337116       5.32337126      -1.842E-08      1.25    <-- DIS
     451       5.32337115       5.32337125      -1.831E-08      1.26    <-- DIS
     452       5.32337114       5.32337123      -1.820E-08      1.26    <-- DIS
     453       5.32337112       5.32337122      -1.809E-08      1.26    <-- DIS
     454       5.32337111       5.32337121      -1.798E-08      1.26    <-- DIS
     455       5.32337110       5.32337119      -1.787E-08      1.27    <-- DIS
     456       5.32337109       5.32337118      -1.776E-08      1.27    <-- DIS
     457       5.32337107       5.32337117      -1.765E-08      1.27    <-- DIS
     458       5.32337106       5.32337116      -1.754E-08      1.27    <-- DIS
     459       5.32337105       5.32337114      -1.744E-08      1.28    <-- DIS
     460       5.32337104       5.32337113      -1.733E-08      1.28    <-- DIS
     461       5.32337103       5.32337112      -1.722E-08      1.28    <-- DIS
     462       5.32337101       5.32337111      -1.711E-08      1.29    <-- DIS
     463       5.32337100       5.32337109      -1.701E-08      1.29    <-- DIS
     464       5.32337099       5.32337108      -1.690E-08      1.29    <-- DIS
     465       5.32337098       5.32337107      -1.679E-08      1.29    <-- DIS
     466       5.32337097       5.32337106      -1.669E-08      1.30    <-- DIS
     467       5.32337096       5.32337105      -1.658E-08      1.30    <-- DIS
     468       5.32337095       5.32337104      -1.648E-08      1.30    <-- DIS
     469       5.32337094       5.32337103      -1.637E-08      1.30    <-- DIS
     470       5.32337093       5.32337102      -1.627E-08      1.31    <-- DIS
     471       5.32337092       5.32337101      -1.616E-08      1.31    <-- DIS
     472       5.32337091       5.32337099      -1.606E-08      1.31    <-- DIS
     473       5.32337090       5.32337098      -1.596E-08      1.32    <-- DIS
     474       5.32337089       5.32337097      -1.585E-08      1.32    <-- DIS
     475       5.32337088       5.32337096      -1.575E-08      1.32    <-- DIS
     476       5.32337087       5.32337095      -1.565E-08      1.32    <-- DIS
     477       5.32337086       5.32337094      -1.554E-08      1.33    <-- DIS
     478       5.32337085       5.32337093      -1.544E-08      1.33    <-- DIS
     479       5.32337084       5.32337093      -1.534E-08      1.33    <-- DIS
     480       5.32337083       5.32337092      -1.524E-08      1.33    <-- DIS
     481       5.32337083       5.32337091      -1.514E-08      1.34    <-- DIS
     482       5.32337082       5.32337090      -1.504E-08      1.34    <-- DIS
     483       5.32337081       5.32337089      -1.494E-08      1.34    <-- DIS
     484       5.32337080       5.32337088      -1.484E-08      1.35    <-- DIS
     485       5.32337079       5.32337087      -1.474E-08      1.35    <-- DIS
     486       5.32337078       5.32337086      -1.464E-08      1.35    <-- DIS
     487       5.32337078       5.32337085      -1.454E-08      1.35    <-- DIS
     488       5.32337077       5.32337084      -1.444E-08      1.36    <-- DIS
     489       5.32337076       5.32337084      -1.434E-08      1.36    <-- DIS
     490       5.32337075       5.32337083      -1.424E-08      1.36    <-- DIS
     491       5.32337074       5.32337082      -1.414E-08      1.36    <-- DIS
     492       5.32337074       5.32337081      -1.405E-08      1.37    <-- DIS
     493       5.32337073       5.32337080      -1.395E-08      1.37    <-- DIS
     494       5.32337072       5.32337080      -1.385E-08      1.37    <-- DIS
     495       5.32337071       5.32337079      -1.375E-08      1.38    <-- DIS
     496       5.32337071       5.32337078      -1.366E-08      1.38    <-- DIS
     497       5.32337070       5.32337077      -1.356E-08      1.38    <-- DIS
     498       5.32337069       5.32337076      -1.347E-08      1.38    <-- DIS
     499       5.32337069       5.32337076      -1.337E-08      1.39    <-- DIS
     500       5.32337068       5.32337075      -1.328E-08      1.39    <-- DIS
     501       5.32337067       5.32337074      -1.318E-08      1.39    <-- DIS
     502       5.32337067       5.32337074      -1.309E-08      1.39    <-- DIS
     503       5.32337066       5.32337073      -1.299E-08      1.40    <-- DIS
     504       5.32337065       5.32337072      -1.290E-08      1.40    <-- DIS
     505       5.32337065       5.32337071      -1.281E-08      1.40    <-- DIS
     506       5.32337064       5.32337071      -1.271E-08      1.41    <-- DIS
     507       5.32337063       5.32337070      -1.262E-08      1.41    <-- DIS
     508       5.32337063       5.32337069      -1.253E-08      1.41    <-- DIS
     509       5.32337062       5.32337069      -1.243E-08      1.41    <-- DIS
     510       5.32337061       5.32337068      -1.234E-08      1.42    <-- DIS
     511       5.32337061       5.32337067      -1.225E-08      1.42    <-- DIS
     512       5.32337060       5.32337067      -1.216E-08      1.42    <-- DIS
     513       5.32337060       5.32337066      -1.207E-08      1.42    <-- DIS
     514       5.32337059       5.32337065      -1.198E-08      1.43    <-- DIS
     515       5.32337059       5.32337065      -1.189E-08      1.43    <-- DIS
     516       5.32337058       5.32337064      -1.180E-08      1.43    <-- DIS
     517       5.32337057       5.32337064      -1.171E-08      1.44    <-- DIS
     518       5.32337057       5.32337063      -1.162E-08      1.44    <-- DIS
     519       5.32337056       5.32337062      -1.153E-08      1.44    <-- DIS
     520       5.32337056       5.32337062      -1.144E-08      1.44    <-- DIS
     521       5.32337055       5.32337061      -1.135E-08      1.45    <-- DIS
     522       5.32337055       5.32337061      -1.126E-08      1.45    <-- DIS
     523       5.32337054       5.32337060      -1.117E-08      1.45    <-- DIS
     524       5.32337053       5.32337059      -1.108E-08      1.45    <-- DIS
     525       5.32337053       5.32337059      -1.099E-08      1.46    <-- DIS
     526       5.32337052       5.32337058      -1.091E-08      1.46    <-- DIS
     527       5.32337052       5.32337058      -1.082E-08      1.46    <-- DIS
     528       5.32337051       5.32337057      -1.073E-08      1.47    <-- DIS
     529       5.32337051       5.32337056      -1.064E-08      1.47    <-- DIS
     530       5.32337050       5.32337056      -1.055E-08      1.47    <-- DIS
     531       5.32337050       5.32337055      -1.047E-08      1.47    <-- DIS
     532       5.32337049       5.32337055      -1.038E-08      1.48    <-- DIS
     533       5.32337049       5.32337054      -1.029E-08      1.48    <-- DIS
     534       5.32337048       5.32337054      -1.021E-08      1.48    <-- DIS
     535       5.32337048       5.32337053      -1.012E-08      1.48    <-- DIS
     536       5.32337047       5.32337053      -1.004E-08      1.49    <-- DIS
     537       5.32337047       5.32337052      -9.949E-09      1.49    <-- DIS
     538       5.32337046       5.32337051      -9.863E-09      1.49    <-- DIS
     539       5.32337046       5.32337051      -9.777E-09      1.50    <-- DIS
     540       5.32337045       5.32337050      -9.691E-09      1.50    <-- DIS
     541       5.32337045       5.32337050      -9.606E-09      1.50    <-- DIS
     542       5.32337044       5.32337049      -9.520E-09      1.50    <-- DIS
     543       5.32337044       5.32337049      -9.435E-09      1.51    <-- DIS
     544       5.32337043       5.32337048      -9.350E-09      1.51    <-- DIS
     545       5.32337043       5.32337048      -9.264E-09      1.51    <-- DIS
     546       5.32337042       5.32337047      -9.179E-09      1.51    <-- DIS
     547       5.32337042       5.32337047      -9.094E-09      1.52    <-- DIS
     548       5.32337041       5.32337046      -9.009E-09      1.52    <-- DIS
     549       5.32337041       5.32337045      -8.924E-09      1.52    <-- DIS
     550       5.32337040       5.32337045      -8.839E-09      1.53    <-- DIS
     551       5.32337040       5.32337044      -8.754E-09      1.53    <-- DIS
     552       5.32337039       5.32337044      -8.669E-09      1.53    <-- DIS
     553       5.32337039       5.32337043      -8.584E-09      1.53    <-- DIS
     554       5.32337038       5.32337043      -8.499E-09      1.54    <-- DIS
     555       5.32337038       5.32337042      -8.414E-09      1.54    <-- DIS
     556       5.32337037       5.32337042      -8.329E-09      1.54    <-- DIS
     557       5.32337037       5.32337041      -8.244E-09      1.55    <-- DIS
     558       5.32337036       5.32337041      -8.159E-09      1.55    <-- DIS
     559       5.32337036       5.32337040      -8.073E-09      1.55    <-- DIS
     560       5.32337035       5.32337039      -7.988E-09      1.55    <-- DIS
     561       5.32337035       5.32337039      -7.903E-09      1.56    <-- DIS
     562       5.32337034       5.32337038      -7.817E-09      1.56    <-- DIS
     563       5.32337034       5.32337038      -7.732E-09      1.56    <-- DIS
     564       5.32337033       5.32337037      -7.646E-09      1.56    <-- DIS
     565       5.32337033       5.32337037      -7.560E-09      1.57    <-- DIS
     566       5.32337032       5.32337036      -7.474E-09      1.57    <-- DIS
     567       5.32337032       5.32337035      -7.388E-09      1.57    <-- DIS
     568       5.32337031       5.32337035      -7.301E-09      1.58    <-- DIS
     569       5.32337030       5.32337034      -7.215E-09      1.58    <-- DIS
     570       5.32337030       5.32337034      -7.128E-09      1.58    <-- DIS
     571       5.32337029       5.32337033      -7.041E-09      1.58    <-- DIS
     572       5.32337029       5.32337032      -6.953E-09      1.59    <-- DIS
     573       5.32337028       5.32337032      -6.866E-09      1.59    <-- DIS
     574       5.32337028       5.32337031      -6.778E-09      1.59    <-- DIS
     575       5.32337027       5.32337031      -6.690E-09      1.59    <-- DIS
     576       5.32337027       5.32337030      -6.601E-09      1.60    <-- DIS
     577       5.32337026       5.32337029      -6.513E-09      1.60    <-- DIS
     578       5.32337025       5.32337029      -6.423E-09      1.60    <-- DIS
     579       5.32337025       5.32337028      -6.334E-09      1.61    <-- DIS
     580       5.32337024       5.32337027      -6.244E-09      1.61    <-- DIS
     581       5.32337024       5.32337027      -6.154E-09      1.61    <-- DIS
     582       5.32337023       5.32337026      -6.063E-09      1.61    <-- DIS
     583       5.32337022       5.32337025      -5.972E-09      1.62    <-- DIS
     584       5.32337022       5.32337025      -5.880E-09      1.62    <-- DIS
     585       5.32337021       5.32337024      -5.788E-09      1.62    <-- DIS
     586       5.32337020       5.32337023      -5.695E-09      1.63    <-- DIS
     587       5.32337020       5.32337023      -5.602E-09      1.63    <-- DIS
     588       5.32337019       5.32337022      -5.508E-09      1.63    <-- DIS
     589       5.32337018       5.32337021      -5.414E-09      1.63    <-- DIS
     590       5.32337018       5.32337020      -5.319E-09      1.64    <-- DIS
     591       5.32337017       5.32337020      -5.223E-09      1.64    <-- DIS
     592       5.32337016       5.32337019      -5.127E-09      1.64    <-- DIS
     593       5.32337016       5.32337018      -5.030E-09      1.64    <-- DIS
     594       5.32337015       5.32337017      -4.933E-09      1.65    <-- DIS
     595       5.32337014       5.32337017      -4.835E-09      1.65    <-- DIS
     596       5.32337013       5.32337016      -4.736E-09      1.65    <-- DIS
     597       5.32337013       5.32337015      -4.636E-09      1.66    <-- DIS
     598       5.32337012       5.32337014      -4.535E-09      1.66    <-- DIS
     599       5.32337011       5.32337013      -4.434E-09      1.66    <-- DIS
     600       5.32337010       5.32337012      -4.332E-09      1.66    <-- DIS
     601       5.32337009       5.32337012      -4.228E-09      1.67    <-- DIS
     602       5.32337009       5.32337011      -4.124E-09      1.67    <-- DIS
     603       5.32337008       5.32337010      -4.019E-09      1.67    <-- DIS
     604       5.32337007       5.32337009      -3.913E-09      1.68    <-- DIS
     605       5.32337006       5.32337008      -3.806E-09      1.68    <-- DIS
     606       5.32337005       5.32337007      -3.698E-09      1.68    <-- DIS
     607       5.32337004       5.32337006      -3.589E-09      1.68    <-- DIS
     608       5.32337003       5.32337005      -3.479E-09      1.69    <-- DIS
     609       5.32337002       5.32337004      -3.368E-09      1.69    <-- DIS
     610       5.32337001       5.32337003      -3.255E-09      1.69    <-- DIS
     611       5.32337000       5.32337002      -3.142E-09      1.69    <-- DIS
     612       5.32336999       5.32337001      -3.027E-09      1.70    <-- DIS
     613       5.32336998       5.32337000      -2.910E-09      1.70    <-- DIS
     614       5.32336997       5.32336999      -2.793E-09      1.70    <-- DIS
     615       5.32336996       5.32336998      -2.674E-09      1.71    <-- DIS
     616       5.32336995       5.32336997      -2.553E-09      1.71    <-- DIS
     617       5.32336994       5.32336995      -2.432E-09      1.71    <-- DIS
     618       5.32336993       5.32336994      -2.308E-09      1.71    <-- DIS
     619       5.32336992       5.32336993      -2.183E-09      1.72    <-- DIS
     620       5.32336991       5.32336992      -2.057E-09      1.72    <-- DIS
     621       5.32336989       5.32336990      -1.929E-09      1.72    <-- DIS
     622       5.32336988       5.32336989      -1.799E-09      1.72    <-- DIS
     623       5.32336987       5.32336988      -1.668E-09      1.73    <-- DIS
     624       5.32336986       5.32336987      -1.535E-09      1.73    <-- DIS
     625       5.32336984       5.32336985      -1.400E-09      1.73    <-- DIS
     626       5.32336983       5.32336984      -1.263E-09      1.74    <-- DIS
     627       5.32336982       5.32336982      -1.124E-09      1.74    <-- DIS
     628       5.32336980       5.32336981      -9.836E-10      1.74    <-- DIS
     629       5.32336979       5.32336980      -8.409E-10      1.74    <-- DIS
     630       5.32336978       5.32336978      -6.961E-10      1.75    <-- DIS
     631       5.32336976       5.32336977      -5.492E-10      1.75    <-- DIS
     632       5.32336975       5.32336975      -4.001E-10      1.75    <-- DIS
     633       5.32336973       5.32336973      -2.488E-10      1.75    <-- DIS
     634       5.32336972       5.32336972      -9.517E-11      1.76    <-- DIS
     635       5.32336970       5.32336970       6.081E-11      1.76    <-- DIS
     636       5.32336968       5.32336968       2.192E-10      1.76    <-- DIS
     637       5.32336967       5.32336967       3.801E-10      1.77    <-- DIS
     638       5.32336965       5.32336965       5.435E-10      1.77    <-- DIS
     639       5.32336963       5.32336963       7.096E-10      1.77    <-- DIS
     640       5.32336962       5.32336961       8.783E-10      1.77    <-- DIS
     641       5.32336960       5.32336959       1.050E-09      1.78    <-- DIS
     642       5.32336958       5.32336957       1.224E-09      1.78    <-- DIS
     643       5.32336956       5.32336955       1.401E-09      1.78    <-- DIS
     644       5.32336954       5.32336953       1.582E-09      1.79    <-- DIS
     645       5.32336952       5.32336951       1.765E-09      1.79    <-- DIS
     646       5.32336950       5.32336949       1.951E-09      1.79    <-- DIS
     647       5.32336948       5.32336947       2.141E-09      1.79    <-- DIS
     648       5.32336946       5.32336945       2.334E-09      1.80    <-- DIS
     649       5.32336944       5.32336943       2.530E-09      1.80    <-- DIS
     650       5.32336942       5.32336941       2.730E-09      1.80    <-- DIS
     651       5.32336940       5.32336938       2.933E-09      1.80    <-- DIS
     652       5.32336937       5.32336936       3.140E-09      1.81    <-- DIS
     653       5.32336935       5.32336933       3.350E-09      1.81    <-- DIS
     654       5.32336933       5.32336931       3.565E-09      1.81    <-- DIS
     655       5.32336930       5.32336928       3.783E-09      1.82    <-- DIS
     656       5.32336928       5.32336926       4.005E-09      1.82    <-- DIS
     657       5.32336925       5.32336923       4.232E-09      1.82    <-- DIS
     658       5.32336923       5.32336920       4.462E-09      1.82    <-- DIS
     659       5.32336920       5.32336918       4.697E-09      1.83    <-- DIS
     660       5.32336917       5.32336915       4.937E-09      1.83    <-- DIS
     661       5.32336915       5.32336912       5.181E-09      1.83    <-- DIS
     662       5.32336912       5.32336909       5.429E-09      1.83    <-- DIS
     663       5.32336909       5.32336906       5.682E-09      1.84    <-- DIS
     664       5.32336906       5.32336903       5.941E-09      1.84    <-- DIS
     665       5.32336903       5.32336900       6.204E-09      1.84    <-- DIS
     666       5.32336900       5.32336896       6.472E-09      1.85    <-- DIS
     667       5.32336897       5.32336893       6.746E-09      1.85    <-- DIS
     668       5.32336893       5.32336890       7.024E-09      1.85    <-- DIS
     669       5.32336890       5.32336886       7.309E-09      1.85    <-- DIS
     670       5.32336887       5.32336883       7.599E-09      1.86    <-- DIS
     671       5.32336883       5.32336879       7.894E-09      1.86    <-- DIS
     672       5.32336880       5.32336875       8.196E-09      1.86    <-- DIS
     673       5.32336876       5.32336872       8.504E-09      1.86    <-- DIS
     674       5.32336873       5.32336868       8.817E-09      1.87    <-- DIS
     675       5.32336869       5.32336864       9.138E-09      1.87    <-- DIS
     676       5.32336865       5.32336860       9.464E-09      1.87    <-- DIS
     677       5.32336861       5.32336856       9.798E-09      1.88    <-- DIS
     678       5.32336857       5.32336851       1.014E-08      1.88    <-- DIS
     679       5.32336853       5.32336847       1.048E-08      1.88    <-- DIS
     680       5.32336849       5.32336843       1.084E-08      1.88    <-- DIS
     681       5.32336844       5.32336838       1.120E-08      1.89    <-- DIS
     682       5.32336840       5.32336834       1.157E-08      1.89    <-- DIS
     683       5.32336835       5.32336829       1.195E-08      1.89    <-- DIS
     684       5.32336831       5.32336824       1.233E-08      1.90    <-- DIS
     685       5.32336826       5.32336819       1.272E-08      1.90    <-- DIS
     686       5.32336821       5.32336814       1.312E-08      1.90    <-- DIS
     687       5.32336816       5.32336809       1.353E-08      1.90    <-- DIS
     688       5.32336811       5.32336804       1.395E-08      1.91    <-- DIS
     689       5.32336806       5.32336798       1.438E-08      1.91    <-- DIS
     690       5.32336801       5.32336793       1.481E-08      1.91    <-- DIS
     691       5.32336795       5.32336787       1.526E-08      1.91    <-- DIS
     692       5.32336790       5.32336781       1.571E-08      1.92    <-- DIS
     693       5.32336784       5.32336775       1.618E-08      1.92    <-- DIS
     694       5.32336778       5.32336769       1.665E-08      1.92    <-- DIS
     695       5.32336772       5.32336763       1.713E-08      1.93    <-- DIS
     696       5.32336766       5.32336757       1.763E-08      1.93    <-- DIS
     697       5.32336760       5.32336750       1.813E-08      1.93    <-- DIS
     698       5.32336754       5.32336744       1.865E-08      1.93    <-- DIS
     699       5.32336747       5.32336737       1.917E-08      1.94    <-- DIS
     700       5.32336741       5.32336730       1.971E-08      1.94    <-- DIS
     701       5.32336734       5.32336723       2.026E-08      1.94    <-- DIS
     702       5.32336727       5.32336716       2.082E-08      1.95    <-- DIS
     703       5.32336720       5.32336708       2.140E-08      1.95    <-- DIS
     704       5.32336713       5.32336701       2.199E-08      1.95    <-- DIS
     705       5.32336705       5.32336693       2.258E-08      1.95    <-- DIS
     706       5.32336698       5.32336685       2.320E-08      1.96    <-- DIS
     707       5.32336690       5.32336677       2.382E-08      1.96    <-- DIS
     708       5.32336682       5.32336669       2.446E-08      1.96    <-- DIS
     709       5.32336674       5.32336660       2.512E-08      1.96    <-- DIS
     710       5.32336665       5.32336652       2.578E-08      1.97    <-- DIS
     711       5.32336657       5.32336643       2.647E-08      1.97    <-- DIS
     712       5.32336648       5.32336634       2.716E-08      1.97    <-- DIS
     713       5.32336639       5.32336625       2.788E-08      1.98    <-- DIS
     714       5.32336630       5.32336615       2.861E-08      1.98    <-- DIS
     715       5.32336621       5.32336605       2.935E-08      1.98    <-- DIS
     716       5.32336611       5.32336595       3.011E-08      1.98    <-- DIS
     717       5.32336602       5.32336585       3.089E-08      1.99    <-- DIS
     718       5.32336592       5.32336575       3.169E-08      1.99    <-- DIS
     719       5.32336582       5.32336564       3.250E-08      1.99    <-- DIS
     720       5.32336571       5.32336553       3.333E-08      1.99    <-- DIS
     721       5.32336560       5.32336542       3.418E-08      2.00    <-- DIS
     722       5.32336550       5.32336531       3.505E-08      2.00    <-- DIS
     723       5.32336538       5.32336519       3.594E-08      2.00    <-- DIS
     724       5.32336527       5.32336507       3.685E-08      2.01    <-- DIS
     725       5.32336515       5.32336495       3.777E-08      2.01    <-- DIS
     726       5.32336503       5.32336483       3.872E-08      2.01    <-- DIS
     727       5.32336491       5.32336470       3.969E-08      2.01    <-- DIS
     728       5.32336479       5.32336457       4.069E-08      2.02    <-- DIS
     729       5.32336466       5.32336444       4.170E-08      2.02    <-- DIS
     730       5.32336453       5.32336430       4.274E-08      2.02    <-- DIS
     731       5.32336439       5.32336416       4.380E-08      2.02    <-- DIS
     732       5.32336426       5.32336402       4.488E-08      2.03    <-- DIS
     733       5.32336412       5.32336387       4.599E-08      2.03    <-- DIS
     734       5.32336397       5.32336372       4.712E-08      2.03    <-- DIS
     735       5.32336383       5.32336357       4.828E-08      2.04    <-- DIS
     736       5.32336368       5.32336341       4.947E-08      2.04    <-- DIS
     737       5.32336352       5.32336325       5.068E-08      2.04    <-- DIS
     738       5.32336337       5.32336309       5.192E-08      2.04    <-- DIS
     739       5.32336321       5.32336292       5.319E-08      2.05    <-- DIS
     740       5.32336304       5.32336275       5.448E-08      2.05    <-- DIS
     741       5.32336287       5.32336258       5.581E-08      2.05    <-- DIS
     742       5.32336270       5.32336240       5.716E-08      2.06    <-- DIS
     743       5.32336253       5.32336222       5.855E-08      2.06    <-- DIS
     744       5.32336235       5.32336203       5.997E-08      2.06    <-- DIS
     745       5.32336216       5.32336184       6.142E-08      2.06    <-- DIS
     746       5.32336197       5.32336164       6.290E-08      2.07    <-- DIS
     747       5.32336178       5.32336144       6.441E-08      2.07    <-- DIS
     748       5.32336159       5.32336123       6.596E-08      2.07    <-- DIS
     749       5.32336138       5.32336102       6.755E-08      2.07    <-- DIS
     750       5.32336118       5.32336081       6.917E-08      2.08    <-- DIS
     751       5.32336097       5.32336059       7.083E-08      2.08    <-- DIS
     752       5.32336075       5.32336037       7.253E-08      2.08    <-- DIS
     753       5.32336053       5.32336014       7.426E-08      2.09    <-- DIS
     754       5.32336030       5.32335990       7.604E-08      2.09    <-- DIS
     755       5.32336007       5.32335966       7.785E-08      2.09    <-- DIS
     756       5.32335984       5.32335941       7.971E-08      2.09    <-- DIS
     757       5.32335960       5.32335916       8.160E-08      2.10    <-- DIS
     758       5.32335935       5.32335890       8.355E-08      2.10    <-- DIS
     759       5.32335910       5.32335864       8.553E-08      2.10    <-- DIS
     760       5.32335884       5.32335837       8.756E-08      2.10    <-- DIS
     761       5.32335857       5.32335809       8.964E-08      2.11    <-- DIS
     762       5.32335830       5.32335781       9.176E-08      2.11    <-- DIS
[...]
 Delta: O_D=  0.4956972E-08 O_OD= -0.1286105E-07 O_TOT= -0.7904077E-08 <-- DLTA
 ------------------------------------------------------------------------------
 Cycle:   1026
  WF centre and spread    1  (  0.972713,  0.691908,  0.498813 )     0.77466184
  WF centre and spread    2  (  0.486653,  0.731178, -0.937515 )     0.77286528
  WF centre and spread    3  ( -1.896787, -0.690651, -0.508865 )     0.77302088
  WF centre and spread    4  (  0.486526, -0.738188,  0.924908 )     0.77314583
  WF centre and spread    5  ( -0.013034,  0.007081,  0.002752 )     0.36646722
  WF centre and spread    6  ( -0.013795, -0.007065,  0.000109 )     0.36595354
  WF centre and spread    7  (  0.013199, -0.005752, -0.000426 )     0.36168123
  WF centre and spread    8  ( -0.000505,  0.000149,  0.000203 )     0.45328462
  WF centre and spread    9  (  0.013679,  0.005843, -0.002319 )     0.36300812
  Sum of centres and spreads (  0.048650, -0.005496, -0.022338 )     5.00408857

   1026    -0.679E-08     0.0000435205        5.0040882019      19.19  <-- CONV
        O_D=      0.0023247 O_OD=      0.2829320 O_TOT=      5.0040882 <-- SPRD
 Delta: O_D=  0.4225428E-08 O_OD= -0.1101642E-07 O_TOT= -0.6790990E-08 <-- DLTA
 ------------------------------------------------------------------------------
 Cycle:   1027
  WF centre and spread    1  (  0.972714,  0.691907,  0.498813 )     0.77466230
  WF centre and spread    2  (  0.486653,  0.731177, -0.937515 )     0.77286440
  WF centre and spread    3  ( -1.896787, -0.690652, -0.508864 )     0.77302180
  WF centre and spread    4  (  0.486526, -0.738188,  0.924908 )     0.77314560
  WF centre and spread    5  ( -0.013035,  0.007080,  0.002747 )     0.36646468
  WF centre and spread    6  ( -0.013794, -0.007063,  0.000109 )     0.36594722
  WF centre and spread    7  (  0.013199, -0.005753, -0.000421 )     0.36168545
  WF centre and spread    8  ( -0.000505,  0.000151,  0.000204 )     0.45328504
  WF centre and spread    9  (  0.013679,  0.005844, -0.002319 )     0.36301208
  Sum of centres and spreads (  0.048650, -0.005497, -0.022338 )     5.00408857

   1027    -0.589E-08     0.0000423175        5.0040881960      19.20  <-- CONV
        O_D=      0.0023247 O_OD=      0.2829320 O_TOT=      5.0040882 <-- SPRD
 Delta: O_D= -0.5859958E-09 O_OD= -0.5304869E-08 O_TOT= -0.5890866E-08 <-- DLTA
 ------------------------------------------------------------------------------
 Cycle:   1028
  WF centre and spread    1  (  0.972714,  0.691907,  0.498814 )     0.77466220
  WF centre and spread    2  (  0.486653,  0.731177, -0.937516 )     0.77286378
  WF centre and spread    3  ( -1.896788, -0.690653, -0.508864 )     0.77302255
  WF centre and spread    4  (  0.486526, -0.738189,  0.924907 )     0.77314563
  WF centre and spread    5  ( -0.013036,  0.007079,  0.002743 )     0.36646318
  WF centre and spread    6  ( -0.013794, -0.007062,  0.000109 )     0.36594338
  WF centre and spread    7  (  0.013200, -0.005754, -0.000417 )     0.36168807
  WF centre and spread    8  ( -0.000505,  0.000154,  0.000204 )     0.45328530
  WF centre and spread    9  (  0.013679,  0.005845, -0.002318 )     0.36301448
  Sum of centres and spreads (  0.048650, -0.005497, -0.022338 )     5.00408856

   1028    -0.360E-08     0.0000355234        5.0040881924      19.20  <-- CONV
        O_D=      0.0023247 O_OD=      0.2829320 O_TOT=      5.0040882 <-- SPRD
 Delta: O_D= -0.5220278E-08 O_OD=  0.1615625E-08 O_TOT= -0.3604653E-08 <-- DLTA
 ------------------------------------------------------------------------------
 Cycle:   1029
  WF centre and spread    1  (  0.972715,  0.691906,  0.498814 )     0.77466163
  WF centre and spread    2  (  0.486653,  0.731176, -0.937516 )     0.77286331
  WF centre and spread    3  ( -1.896788, -0.690653, -0.508864 )     0.77302326
  WF centre and spread    4  (  0.486526, -0.738189,  0.924907 )     0.77314584
  WF centre and spread    5  ( -0.013036,  0.007078,  0.002741 )     0.36646218
  WF centre and spread    6  ( -0.013794, -0.007061,  0.000109 )     0.36594060
  WF centre and spread    7  (  0.013200, -0.005754, -0.000415 )     0.36169005
  WF centre and spread    8  ( -0.000505,  0.000156,  0.000204 )     0.45328549
  WF centre and spread    9  (  0.013679,  0.005845, -0.002318 )     0.36301621
  Sum of centres and spreads (  0.048650, -0.005497, -0.022337 )     5.00408856

   1029    -0.269E-08     0.0000282964        5.0040881897      19.21  <-- CONV
        O_D=      0.0023247 O_OD=      0.2829320 O_TOT=      5.0040882 <-- SPRD
 Delta: O_D= -0.6435339E-08 O_OD=  0.3749489E-08 O_TOT= -0.2685850E-08 <-- DLTA
 ------------------------------------------------------------------------------
 Cycle:   1030
  WF centre and spread    1  (  0.972715,  0.691905,  0.498815 )     0.77466074
  WF centre and spread    2  (  0.486653,  0.731175, -0.937516 )     0.77286298
  WF centre and spread    3  ( -1.896789, -0.690654, -0.508863 )     0.77302395
  WF centre and spread    4  (  0.486526, -0.738190,  0.924907 )     0.77314616
  WF centre and spread    5  ( -0.013036,  0.007078,  0.002739 )     0.36646143
  WF centre and spread    6  ( -0.013794, -0.007061,  0.000109 )     0.36593833
  WF centre and spread    7  (  0.013200, -0.005755, -0.000413 )     0.36169172
  WF centre and spread    8  ( -0.000505,  0.000159,  0.000204 )     0.45328564
  WF centre and spread    9  (  0.013679,  0.005846, -0.002318 )     0.36301760
  Sum of centres and spreads (  0.048650, -0.005497, -0.022337 )     5.00408856

   1030    -0.223E-08     0.0000261775        5.0040881875      19.21  <-- CONV
        O_D=      0.0023247 O_OD=      0.2829320 O_TOT=      5.0040882 <-- SPRD
 Delta: O_D= -0.4176908E-08 O_OD=  0.1948009E-08 O_TOT= -0.2228899E-08 <-- DLTA
 ------------------------------------------------------------------------------
 Cycle:   1031
  WF centre and spread    1  (  0.972716,  0.691905,  0.498815 )     0.77465990
  WF centre and spread    2  (  0.486653,  0.731175, -0.937517 )     0.77286288
  WF centre and spread    3  ( -1.896789, -0.690655, -0.508863 )     0.77302439
  WF centre and spread    4  (  0.486526, -0.738191,  0.924907 )     0.77314647
  WF centre and spread    5  ( -0.013037,  0.007077,  0.002738 )     0.36646097
  WF centre and spread    6  ( -0.013794, -0.007060,  0.000109 )     0.36593686
  WF centre and spread    7  (  0.013200, -0.005755, -0.000412 )     0.36169285
  WF centre and spread    8  ( -0.000504,  0.000161,  0.000204 )     0.45328573
  WF centre and spread    9  (  0.013679,  0.005846, -0.002318 )     0.36301850
  Sum of centres and spreads (  0.048650, -0.005497, -0.022337 )     5.00408856

   1031    -0.147E-08     0.0000220894        5.0040881860      19.22  <-- CONV
        O_D=      0.0023247 O_OD=      0.2829320 O_TOT=      5.0040882 <-- SPRD
 Delta: O_D=  0.5275803E-09 O_OD= -0.2001924E-08 O_TOT= -0.1474342E-08 <-- DLTA
 ------------------------------------------------------------------------------
 Cycle:   1032
  WF centre and spread    1  (  0.972716,  0.691904,  0.498815 )     0.77465924
  WF centre and spread    2  (  0.486653,  0.731174, -0.937517 )     0.77286296
  WF centre and spread    3  ( -1.896789, -0.690655, -0.508863 )     0.77302461
  WF centre and spread    4  (  0.486525, -0.738191,  0.924906 )     0.77314672
  WF centre and spread    5  ( -0.013037,  0.007077,  0.002737 )     0.36646065
  WF centre and spread    6  ( -0.013793, -0.007060,  0.000109 )     0.36593586
  WF centre and spread    7  (  0.013200, -0.005755, -0.000411 )     0.36169362
  WF centre and spread    8  ( -0.000504,  0.000163,  0.000205 )     0.45328579
  WF centre and spread    9  (  0.013679,  0.005846, -0.002318 )     0.36301910
  Sum of centres and spreads (  0.048650, -0.005497, -0.022337 )     5.00408856

   1032    -0.980E-09     0.0000181929        5.0040881851      19.22  <-- CONV
        O_D=      0.0023247 O_OD=      0.2829320 O_TOT=      5.0040882 <-- SPRD
 Delta: O_D=  0.2969971E-08 O_OD= -0.3949665E-08 O_TOT= -0.9796937E-09 <-- DLTA
 ------------------------------------------------------------------------------
 Cycle:   1033
  WF centre and spread    1  (  0.972716,  0.691904,  0.498815 )     0.77465885
  WF centre and spread    2  (  0.486654,  0.731174, -0.937517 )     0.77286314
  WF centre and spread    3  ( -1.896789, -0.690656, -0.508863 )     0.77302464
  WF centre and spread    4  (  0.486525, -0.738192,  0.924906 )     0.77314686
  WF centre and spread    5  ( -0.013037,  0.007077,  0.002736 )     0.36646045
  WF centre and spread    6  ( -0.013793, -0.007060,  0.000109 )     0.36593526
  WF centre and spread    7  (  0.013200, -0.005755, -0.000410 )     0.36169407
  WF centre and spread    8  ( -0.000504,  0.000164,  0.000205 )     0.45328583
  WF centre and spread    9  (  0.013679,  0.005846, -0.002318 )     0.36301946
  Sum of centres and spreads (  0.048650, -0.005497, -0.022337 )     5.00408856

   1033    -0.585E-09     0.0000142720        5.0040881845      19.23  <-- CONV
        O_D=      0.0023247 O_OD=      0.2829320 O_TOT=      5.0040882 <-- SPRD
 Delta: O_D=  0.2780423E-08 O_OD= -0.3365352E-08 O_TOT= -0.5849303E-09 <-- DLTA
 ------------------------------------------------------------------------------
 Cycle:   1034
  WF centre and spread    1  (  0.972716,  0.691904,  0.498815 )     0.77465862
  WF centre and spread    2  (  0.486654,  0.731174, -0.937517 )     0.77286340
  WF centre and spread    3  ( -1.896789, -0.690656, -0.508862 )     0.77302453
  WF centre and spread    4  (  0.486525, -0.738192,  0.924906 )     0.77314696
  WF centre and spread    5  ( -0.013037,  0.007077,  0.002736 )     0.36646025
  WF centre and spread    6  ( -0.013793, -0.007059,  0.000109 )     0.36593475
  WF centre and spread    7  (  0.013200, -0.005756, -0.000410 )     0.36169443
  WF centre and spread    8  ( -0.000504,  0.000165,  0.000205 )     0.45328586
  WF centre and spread    9  (  0.013679,  0.005846, -0.002318 )     0.36301976
  Sum of centres and spreads (  0.048650, -0.005497, -0.022337 )     5.00408856

   1034    -0.510E-09     0.0000121725        5.0040881840      19.23  <-- CONV
        O_D=      0.0023247 O_OD=      0.2829320 O_TOT=      5.0040882 <-- SPRD
 Delta: O_D=  0.2065213E-08 O_OD= -0.2575443E-08 O_TOT= -0.5102292E-09 <-- DLTA
 ------------------------------------------------------------------------------
 Cycle:   1035
  WF centre and spread    1  (  0.972716,  0.691904,  0.498815 )     0.77465857
  WF centre and spread    2  (  0.486654,  0.731174, -0.937518 )     0.77286363
  WF centre and spread    3  ( -1.896789, -0.690656, -0.508862 )     0.77302436
  WF centre and spread    4  (  0.486525, -0.738192,  0.924906 )     0.77314700
  WF centre and spread    5  ( -0.013037,  0.007077,  0.002735 )     0.36646009
  WF centre and spread    6  ( -0.013793, -0.007059,  0.000109 )     0.36593436
  WF centre and spread    7  (  0.013200, -0.005756, -0.000410 )     0.36169468
  WF centre and spread    8  ( -0.000504,  0.000166,  0.000205 )     0.45328590
  WF centre and spread    9  (  0.013679,  0.005846, -0.002318 )     0.36301998
  Sum of centres and spreads (  0.048650, -0.005497, -0.022337 )     5.00408856

   1035    -0.350E-09     0.0000109957        5.0040881836      19.24  <-- CONV
        O_D=      0.0023247 O_OD=      0.2829320 O_TOT=      5.0040882 <-- SPRD
 Delta: O_D=  0.6604860E-09 O_OD= -0.1010039E-08 O_TOT= -0.3495533E-09 <-- DLTA
 ------------------------------------------------------------------------------
 Cycle:   1036
  WF centre and spread    1  (  0.972716,  0.691904,  0.498815 )     0.77465864
  WF centre and spread    2  (  0.486654,  0.731174, -0.937518 )     0.77286375
  WF centre and spread    3  ( -1.896789, -0.690656, -0.508862 )     0.77302420
  WF centre and spread    4  (  0.486525, -0.738192,  0.924906 )     0.77314699
  WF centre and spread    5  ( -0.013037,  0.007077,  0.002735 )     0.36646001
  WF centre and spread    6  ( -0.013793, -0.007059,  0.000109 )     0.36593414
  WF centre and spread    7  (  0.013200, -0.005756, -0.000410 )     0.36169481
  WF centre and spread    8  ( -0.000504,  0.000166,  0.000205 )     0.45328592
  WF centre and spread    9  (  0.013679,  0.005846, -0.002318 )     0.36302010
  Sum of centres and spreads (  0.048650, -0.005497, -0.022337 )     5.00408856

   1036    -0.179E-09     0.0000083171        5.0040881834      19.24  <-- CONV
        O_D=      0.0023247 O_OD=      0.2829320 O_TOT=      5.0040882 <-- SPRD
 Delta: O_D= -0.4769944E-09 O_OD=  0.2977940E-09 O_TOT= -0.1792007E-09 <-- DLTA
 ------------------------------------------------------------------------------
 Cycle:   1037
  WF centre and spread    1  (  0.972716,  0.691904,  0.498815 )     0.77465876
  WF centre and spread    2  (  0.486654,  0.731174, -0.937518 )     0.77286381
  WF centre and spread    3  ( -1.896789, -0.690656, -0.508862 )     0.77302405
  WF centre and spread    4  (  0.486525, -0.738192,  0.924906 )     0.77314696
  WF centre and spread    5  ( -0.013037,  0.007077,  0.002735 )     0.36645998
  WF centre and spread    6  ( -0.013793, -0.007059,  0.000109 )     0.36593403
  WF centre and spread    7  (  0.013200, -0.005756, -0.000409 )     0.36169487
  WF centre and spread    8  ( -0.000504,  0.000166,  0.000205 )     0.45328593
  WF centre and spread    9  (  0.013679,  0.005846, -0.002318 )     0.36302016
  Sum of centres and spreads (  0.048650, -0.005497, -0.022337 )     5.00408856

   1037    -0.108E-09     0.0000063428        5.0040881833      19.25  <-- CONV
        O_D=      0.0023247 O_OD=      0.2829320 O_TOT=      5.0040882 <-- SPRD
 Delta: O_D= -0.6574550E-09 O_OD=  0.5495128E-09 O_TOT= -0.1079430E-09 <-- DLTA
 ------------------------------------------------------------------------------
 Cycle:   1038
  WF centre and spread    1  (  0.972716,  0.691904,  0.498815 )     0.77465892
  WF centre and spread    2  (  0.486654,  0.731174, -0.937518 )     0.77286384
  WF centre and spread    3  ( -1.896789, -0.690656, -0.508862 )     0.77302392
  WF centre and spread    4  (  0.486525, -0.738192,  0.924906 )     0.77314690
  WF centre and spread    5  ( -0.013037,  0.007077,  0.002735 )     0.36645997
  WF centre and spread    6  ( -0.013793, -0.007059,  0.000109 )     0.36593396
  WF centre and spread    7  (  0.013200, -0.005756, -0.000409 )     0.36169491
  WF centre and spread    8  ( -0.000504,  0.000166,  0.000205 )     0.45328593
  WF centre and spread    9  (  0.013679,  0.005846, -0.002318 )     0.36302020
  Sum of centres and spreads (  0.048650, -0.005497, -0.022337 )     5.00408856

   1038    -0.805E-10     0.0000047817        5.0040881832      19.26  <-- CONV
        O_D=      0.0023247 O_OD=      0.2829320 O_TOT=      5.0040882 <-- SPRD
 Delta: O_D= -0.4234434E-09 O_OD=  0.3429814E-09 O_TOT= -0.8046097E-10 <-- DLTA
 ------------------------------------------------------------------------------
 Cycle:   1039
  WF centre and spread    1  (  0.972716,  0.691904,  0.498815 )     0.77465932
  WF centre and spread    2  (  0.486654,  0.731174, -0.937517 )     0.77286387
  WF centre and spread    3  ( -1.896789, -0.690656, -0.508862 )     0.77302364
  WF centre and spread    4  (  0.486525, -0.738192,  0.924906 )     0.77314675
  WF centre and spread    5  ( -0.013037,  0.007077,  0.002735 )     0.36645996
  WF centre and spread    6  ( -0.013793, -0.007059,  0.000109 )     0.36593384
  WF centre and spread    7  (  0.013200, -0.005756, -0.000409 )     0.36169498
  WF centre and spread    8  ( -0.000504,  0.000165,  0.000204 )     0.45328593
  WF centre and spread    9  (  0.013679,  0.005846, -0.002318 )     0.36302026
  Sum of centres and spreads (  0.048650, -0.005497, -0.022338 )     5.00408856

   1039    -0.883E-10     0.0000044160        5.0040881832      19.26  <-- CONV
        O_D=      0.0023247 O_OD=      0.2829320 O_TOT=      5.0040882 <-- SPRD
 Delta: O_D= -0.1781812E-09 O_OD=  0.8991491E-10 O_TOT= -0.8826717E-10 <-- DLTA
 ------------------------------------------------------------------------------
 Cycle:   1040
  WF centre and spread    1  (  0.972715,  0.691904,  0.498815 )     0.77465956
  WF centre and spread    2  (  0.486654,  0.731174, -0.937517 )     0.77286388
  WF centre and spread    3  ( -1.896789, -0.690656, -0.508862 )     0.77302349
  WF centre and spread    4  (  0.486525, -0.738192,  0.924906 )     0.77314665
  WF centre and spread    5  ( -0.013037,  0.007077,  0.002735 )     0.36645996
  WF centre and spread    6  ( -0.013793, -0.007059,  0.000109 )     0.36593377
  WF centre and spread    7  (  0.013200, -0.005756, -0.000409 )     0.36169501
  WF centre and spread    8  ( -0.000504,  0.000165,  0.000204 )     0.45328594
  WF centre and spread    9  (  0.013679,  0.005846, -0.002318 )     0.36302030
  Sum of centres and spreads (  0.048650, -0.005497, -0.022338 )     5.00408855

   1040    -0.408E-10     0.0000053479        5.0040881831      19.27  <-- CONV
        O_D=      0.0023247 O_OD=      0.2829320 O_TOT=      5.0040882 <-- SPRD
 Delta: O_D=  0.1535491E-09 O_OD= -0.1943855E-09 O_TOT= -0.4083667E-10 <-- DLTA
 ------------------------------------------------------------------------------

             <<<     Delta < 1.000E-10  over  3 iterations     >>>
             <<< Wannierisation convergence criteria satisfied >>>

 Final State
  WF centre and spread    1  (  0.972715,  0.691904,  0.498815 )     0.77465956
  WF centre and spread    2  (  0.486654,  0.731174, -0.937517 )     0.77286388
  WF centre and spread    3  ( -1.896789, -0.690656, -0.508862 )     0.77302349
  WF centre and spread    4  (  0.486525, -0.738192,  0.924906 )     0.77314665
  WF centre and spread    5  ( -0.013037,  0.007077,  0.002735 )     0.36645996
  WF centre and spread    6  ( -0.013793, -0.007059,  0.000109 )     0.36593377
  WF centre and spread    7  (  0.013200, -0.005756, -0.000409 )     0.36169501
  WF centre and spread    8  ( -0.000504,  0.000165,  0.000204 )     0.45328594
  WF centre and spread    9  (  0.013679,  0.005846, -0.002318 )     0.36302030
  Sum of centres and spreads (  0.048650, -0.005497, -0.022338 )     5.00408855

         Spreads (Ang^2)       Omega I      =     4.718831489
        ================       Omega D      =     0.002324739
                               Omega OD     =     0.282931955
    Final Spread (Ang^2)       Omega Total  =     5.004088183
 ------------------------------------------------------------------------------
 Time for wannierise            5.120 (sec)

 Writing checkpoint file Fe_dn.chk... done

 *---------------------------------------------------------------------------*
 |                               PLOTTING                                    |
 *---------------------------------------------------------------------------*


 Calculating interpolated band-structure

 Time to calculate interpolated band structure       0.482 (sec)

 Time for plotting              5.152 (sec)
 Total Execution Time          25.167 (sec)

 *===========================================================================*
 |                             TIMING INFORMATION                            |
 *===========================================================================*
 |    Tag                                                Ncalls      Time (s)|
 |---------------------------------------------------------------------------|
 |kmesh: get                                        :         1         0.158|
 |overlap: allocate                                 :         1         0.000|
 |overlap: read                                     :         1         0.529|
 |dis: main                                         :         1        14.167|
 |wann: main                                        :         1         5.120|
 |plot: main                                        :         1         5.152|
 *---------------------------------------------------------------------------*

 All done: wannier90 exiting
