
             +---------------------------------------------------+
             |                                                   |
             |                   WANNIER90                       |
             |                                                   |
             +---------------------------------------------------+
             |                                                   |
             |        Welcome to the Maximally-Localized         |
             |        Generalized Wannier Functions code         |
             |            http://www.wannier.org                 |
             |                                                   |
             |                                                   |
             |  Wannier90 Developer Group:                       |
             |    Giovanni Pizzi    (EPFL)                       |
             |    Valerio Vitale    (Cambridge)                  |
             |    David Vanderbilt  (Rutgers University)         |
             |    Nicola Marzari    (EPFL)                       |
             |    Ivo Souza         (Universidad del Pais Vasco) |
             |    Arash A. Mostofi  (Imperial College London)    |
             |    Jonathan R. Yates (University of Oxford)       |
             |                                                   |
             |  For the full list of Wannier90 3.x authors,      |
             |  please check the code documentation and the      |
             |  README on the GitHub page of the code            |
             |                                                   |
             |                                                   |
             |  Please cite                                      |
             |                                                   |
             |  [ref] "Wannier90 as a community code:            |
             |        new features and applications",            |
             |        G. Pizzi et al., J. Phys. Cond. Matt. 32,  |
             |        165902 (2020).                             |
             |        http://doi.org/10.1088/1361-648X/ab51ff    |
             |                                                   |
             |  in any publications arising from the use of      |
             |  this code. For the method please cite            |
             |                                                   |
             |  [ref] "Maximally Localized Generalised Wannier   |
             |         Functions for Composite Energy Bands"     |
             |         N. Marzari and D. Vanderbilt              |
             |         Phys. Rev. B 56 12847 (1997)              |
             |                                                   |
             |  [ref] "Maximally Localized Wannier Functions     |
             |         for Entangled Energy Bands"               |
             |         I. Souza, N. Marzari and D. Vanderbilt    |
             |         Phys. Rev. B 65 035109 (2001)             |
             |                                                   |
             |                                                   |
             | Copyright (c) 1996-2020                           |
             |        The Wannier90 Developer Group and          |
             |        individual contributors                    |
             |                                                   |
             |      Release: 3.1.0        5th March    2020      |
             |                                                   |
             | This program is free software; you can            |
             | redistribute it and/or modify it under the terms  |
             | of the GNU General Public License as published by |
             | the Free Software Foundation; either version 2 of |
             | the License, or (at your option) any later version|
             |                                                   |
             | This program is distributed in the hope that it   |
             | will be useful, but WITHOUT ANY WARRANTY; without |
             | even the implied warranty of MERCHANTABILITY or   |
             | FITNESS FOR A PARTICULAR PURPOSE. See the GNU     |
             | General Public License for more details.          |
             |                                                   |
             | You should have received a copy of the GNU General|
             | Public License along with this program; if not,   |
             | write to the Free Software Foundation, Inc.,      |
             | 675 Mass Ave, Cambridge, MA 02139, USA.           |
             |                                                   |
             +---------------------------------------------------+
             |    Execution started on  4Aug2023 at 11:51:52     |
             +---------------------------------------------------+
 
 ******************************************************************************
 * -> Using CODATA 2006 constant values                                       *
 *    (http://physics.nist.gov/cuu/Constants/index.html)                      *
 * -> Using Bohr value from CODATA                                            *
 ******************************************************************************
 

 Running in parallel on   8 CPUs


                                    ------
                                    SYSTEM
                                    ------

                              Lattice Vectors (Ang)
                    a_1     1.434996   1.434996   1.434996
                    a_2    -1.434996   1.434996   1.434996
                    a_3    -1.434996  -1.434996   1.434996

                   Unit Cell Volume:      11.81986  (Ang^3)

                        Reciprocal-Space Vectors (Ang^-1)
                    b_1     2.189269   0.000000   2.189269
                    b_2    -2.189269   2.189269   0.000000
                    b_3     0.000000  -2.189269   2.189269
  
 *----------------------------------------------------------------------------*
 |   Site       Fractional Coordinate          Cartesian Coordinate (Ang)     |
 +----------------------------------------------------------------------------+
 | Fe   1   0.00000   0.00000   0.00000   |    0.00000   0.00000   0.00000    |
 *----------------------------------------------------------------------------*
                                ------------
                                K-POINT GRID
                                ------------
  
             Grid size =  6 x  6 x  6      Total points =  216
  
  
 *---------------------------------- MAIN ------------------------------------*
 |  Number of Wannier Functions               :                 9             |
 |  Number of Objective Wannier Functions     :                 9             |
 |  Number of input Bloch states              :                15             |
 |  Output verbosity (1=low, 5=high)          :                 1             |
 |  Timing Level (1=low, 5=high)              :                 1             |
 |  Optimisation (0=memory, 3=speed)          :                 3             |
 |  Length Unit                               :               Ang             |
 |  Post-processing setup (write *.nnkp)      :                 F             |
 |  Using Gamma-only branch of algorithms     :                 F             |
 *----------------------------------------------------------------------------*
 *------------------------------- WANNIERISE ---------------------------------*
 |  Total number of iterations                :              5000             |
 |  Number of CG steps before reset           :               200             |
 |  Trial step length for line search         :             2.000             |
 |  Convergence tolerence                     :         0.100E-09             |
 |  Convergence window                        :                 3             |
 |  Iterations between writing output         :                 1             |
 |  Iterations between backing up to disk     :               100             |
 |  Write r^2_nm to file                      :                 F             |
 |  Write xyz WF centres to file              :                 F             |
 |  Write on-site energies <0n|H|0n> to file  :                 F             |
 |  Use guiding centre to control phases      :                 F             |
 |  Use phases for initial projections        :                 F             |
 *----------------------------------------------------------------------------*
 *------------------------------- DISENTANGLE --------------------------------*
 |  Using band disentanglement                :                 T             |
 |  Total number of iterations                :              5000             |
 |  Mixing ratio                              :             0.500             |
 |  Convergence tolerence                     :         1.000E-10             |
 |  Convergence window                        :                 3             |
 *----------------------------------------------------------------------------*
 *-------------------------------- PLOTTING ----------------------------------*
 |  Plotting interpolated bandstructure       :                 T             |
 |   Number of K-path sections                :                 6             |
 |   Divisions along first K-path section     :               100             |
 |   Output format                            :           gnuplot             |
 |   Output mode                              :               s-k             |
 *----------------------------------------------------------------------------*
 |   K-space path sections:                                                   |
 |    From: G       0.000  0.000  0.000     To: H       0.500  0.500 -0.500   |
 |    From: H       0.500  0.500 -0.500     To: N       0.500  0.000 -0.500   |
 |    From: N       0.500  0.000 -0.500     To: G       0.000  0.000  0.000   |
 |    From: G       0.000  0.000  0.000     To: P       0.750  0.250 -0.250   |
 |    From: P       0.750  0.250 -0.250     To: H       0.500  0.500 -0.500   |
 |    From: P       0.750  0.250 -0.250     To: N       0.500  0.000 -0.500   |
 *----------------------------------------------------------------------------*
 Time to read parameters        0.040 (sec)

 *---------------------------------- K-MESH ----------------------------------*
 +----------------------------------------------------------------------------+
 |                    Distance to Nearest-Neighbour Shells                    |
 |                    ------------------------------------                    |
 |          Shell             Distance (Ang^-1)          Multiplicity         |
 |          -----             -----------------          ------------         |
 |             1                   0.516016                     12            |
 |             2                   0.729756                      6            |
 |             3                   0.893765                     24            |
 |             4                   1.032031                     12            |
 |             5                   1.153846                     24            |
 |             6                   1.263975                      8            |
 |             7                   1.365249                     48            |
 |             8                   1.459513                      6            |
 |             9                   1.548047                     36            |
 |            10                   1.631785                     24            |
 |            11                   1.711430                     24            |
 |            12                   1.787531                     24            |
 |            13                   1.860521                     72            |
 |            14                   1.998520                     48            |
 |            15                   2.064062                     12            |
 |            16                   2.127587                     48            |
 |            17                   2.189269                     30            |
 |            18                   2.249260                     72            |
 |            19                   2.307692                     24            |
 |            20                   2.364681                     48            |
 |            21                   2.420328                     24            |
 |            22                   2.474724                     48            |
 |            23                   2.527950                      8            |
 |            24                   2.580078                     84            |
 |            25                   2.631174                     24            |
 |            26                   2.681296                     96            |
 |            27                   2.730498                     48            |
 |            28                   2.778829                     24            |
 |            29                   2.873053                     96            |
 |            30                   2.919025                      6            |
 |            31                   2.964284                     96            |
 |            32                   3.008862                     48            |
 |            33                   3.052790                     48            |
 |            34                   3.096094                     36            |
 |            35                   3.138800                    120            |
 |            36                   3.180934                     24            |
 +----------------------------------------------------------------------------+
 | The b-vectors are chosen automatically                                     |
 | The following shells are used:   1                                         |
 +----------------------------------------------------------------------------+
 |                        Shell   # Nearest-Neighbours                        |
 |                        -----   --------------------                        |
 |                          1              12                                 |
 +----------------------------------------------------------------------------+
 | Completeness relation is fully satisfied [Eq. (B1), PRB 56, 12847 (1997)]  |
 +----------------------------------------------------------------------------+
 |                  b_k Vectors (Ang^-1) and Weights (Ang^2)                  |
 |                  ----------------------------------------                  |
 |            No.         b_k(x)      b_k(y)      b_k(z)        w_b           |
 |            ---        --------------------------------     --------        |
 |             1         0.000000   -0.364878    0.364878     0.938889        |
 |             2        -0.364878    0.364878    0.000000     0.938889        |
 |             3        -0.364878    0.000000    0.364878     0.938889        |
 |             4         0.364878    0.000000    0.364878     0.938889        |
 |             5         0.000000    0.364878    0.364878     0.938889        |
 |             6         0.000000    0.364878   -0.364878     0.938889        |
 |             7         0.364878    0.364878    0.000000     0.938889        |
 |             8         0.364878   -0.364878    0.000000     0.938889        |
 |             9         0.364878    0.000000   -0.364878     0.938889        |
 |            10        -0.364878    0.000000   -0.364878     0.938889        |
 |            11        -0.364878   -0.364878    0.000000     0.938889        |
 |            12         0.000000   -0.364878   -0.364878     0.938889        |
 +----------------------------------------------------------------------------+
 |                           b_k Directions (Ang^-1)                          |
 |                           -----------------------                          |
 |            No.           x           y           z                         |
 |            ---        --------------------------------                     |
 |             1         0.000000   -0.364878    0.364878                     |
 |             2        -0.364878    0.364878    0.000000                     |
 |             3        -0.364878    0.000000    0.364878                     |
 |             4         0.364878    0.000000    0.364878                     |
 |             5         0.000000    0.364878    0.364878                     |
 |             6         0.364878    0.364878    0.000000                     |
 +----------------------------------------------------------------------------+
  
 Time to get kmesh              0.158 (sec)
 *============================================================================*
 |                              MEMORY ESTIMATE                               |
 |         Maximum RAM allocated during each phase of the calculation         |
 *============================================================================*
 |                        Disentanglement           13.46 Mb                  |
 |                            Wannierise:            8.96 Mb                  |
 |                          plot_wannier:            8.96 Mb                  |
 *----------------------------------------------------------------------------*
  
 Starting a new Wannier90 calculation ...


 Reading overlaps from Fe_up.mmn    :  Created on  4Aug2023 at 11:51:43

 Reading projections from Fe_up.amn :  Created on  4Aug2023 at 11:51:43

 Time to read overlaps          0.560 (sec)

 *------------------------------- DISENTANGLE --------------------------------*
 +----------------------------------------------------------------------------+
 |                              Energy  Windows                               |
 |                              ---------------                               |
 |                   Outer:    9.09402  to   66.15340  (eV)                   |
 |                   Inner:    9.09402  to   22.00000  (eV)                   |
 +----------------------------------------------------------------------------+
   Number of target bands to extract:    9

                   Unitarised projection of Wannier functions                  
                   ------------------------------------------                  
   A_mn = <psi_m|g_n> --> S = A.A^+ --> U = S^-1/2.A
   In dis_project... done
   Using an inner window (linner = T)
   In dis_proj_froz... done

                   Extraction of optimally-connected subspace                  
                   ------------------------------------------                  
 +---------------------------------------------------------------------+<-- DIS
 |  Iter     Omega_I(i-1)      Omega_I(i)      Delta (frac.)    Time   |<-- DIS
 +---------------------------------------------------------------------+<-- DIS
       1       6.31065856       5.70945491       1.053E-01      0.00    <-- DIS
       2       5.99431787       5.61133710       6.825E-02      0.00    <-- DIS
       3       5.79615829       5.55540090       4.334E-02      0.01    <-- DIS
       4       5.67250470       5.52104312       2.743E-02      0.01    <-- DIS
       5       5.59523472       5.49908160       1.749E-02      0.01    <-- DIS
       6       5.54652061       5.48465709       1.128E-02      0.01    <-- DIS
       7       5.51540499       5.47496264       7.387E-03      0.02    <-- DIS
       8       5.49521098       5.46830804       4.920E-03      0.02    <-- DIS
       9       5.48186839       5.46364754       3.335E-03      0.02    <-- DIS
      10       5.47288233       5.46032018       2.301E-03      0.03    <-- DIS
      11       5.46670968       5.45790017       1.614E-03      0.03    <-- DIS
      12       5.46238485       5.45610836       1.150E-03      0.03    <-- DIS
      13       5.45929531       5.45475856       8.317E-04      0.03    <-- DIS
      14       5.45704653       5.45372464       6.091E-04      0.04    <-- DIS
      15       5.45538020       5.45291973       4.512E-04      0.04    <-- DIS
      16       5.45412433       5.45228319       3.377E-04      0.04    <-- DIS
      17       5.45316241       5.45177208       2.550E-04      0.05    <-- DIS
      18       5.45241424       5.45135557       1.942E-04      0.05    <-- DIS
      19       5.45182368       5.45101130       1.490E-04      0.05    <-- DIS
      20       5.45135085       5.45072284       1.152E-04      0.05    <-- DIS
      21       5.45096705       5.45047802       8.972E-05      0.06    <-- DIS
      22       5.45065135       5.45026770       7.039E-05      0.06    <-- DIS
      23       5.45038830       5.45008501       5.565E-05      0.06    <-- DIS
      24       5.45016638       5.44992467       4.435E-05      0.06    <-- DIS
      25       5.44997695       5.44978265       3.565E-05      0.07    <-- DIS
      26       5.44981344       5.44965582       2.892E-05      0.07    <-- DIS
      27       5.44967081       5.44954171       2.369E-05      0.07    <-- DIS
      28       5.44954521       5.44943839       1.960E-05      0.08    <-- DIS
      29       5.44943362       5.44934432       1.639E-05      0.08    <-- DIS
      30       5.44933370       5.44925826       1.384E-05      0.08    <-- DIS
      31       5.44924359       5.44917921       1.181E-05      0.08    <-- DIS
      32       5.44916182       5.44910634       1.018E-05      0.09    <-- DIS
      33       5.44908722       5.44903897       8.855E-06      0.09    <-- DIS
      34       5.44901884       5.44897652       7.767E-06      0.09    <-- DIS
      35       5.44895591       5.44891851       6.864E-06      0.10    <-- DIS
      36       5.44889778       5.44886452       6.105E-06      0.10    <-- DIS
      37       5.44884394       5.44881420       5.459E-06      0.10    <-- DIS
      38       5.44879394       5.44876723       4.902E-06      0.10    <-- DIS
      39       5.44874741       5.44872334       4.417E-06      0.11    <-- DIS
      40       5.44870403       5.44868229       3.989E-06      0.11    <-- DIS
      41       5.44866352       5.44864386       3.608E-06      0.11    <-- DIS
      42       5.44862563       5.44860784       3.265E-06      0.12    <-- DIS
      43       5.44859017       5.44857408       2.954E-06      0.12    <-- DIS
      44       5.44855694       5.44854239       2.671E-06      0.12    <-- DIS
      45       5.44852577       5.44851264       2.411E-06      0.12    <-- DIS
      46       5.44849652       5.44848469       2.171E-06      0.13    <-- DIS
      47       5.44846904       5.44845842       1.950E-06      0.13    <-- DIS
      48       5.44844321       5.44843370       1.745E-06      0.13    <-- DIS
      49       5.44841892       5.44841045       1.555E-06      0.14    <-- DIS
      50       5.44839606       5.44838855       1.378E-06      0.14    <-- DIS
      51       5.44837453       5.44836791       1.214E-06      0.14    <-- DIS
      52       5.44835425       5.44834846       1.062E-06      0.14    <-- DIS
      53       5.44833514       5.44833011       9.215E-07      0.15    <-- DIS
      54       5.44831711       5.44831280       7.910E-07      0.15    <-- DIS
      55       5.44830009       5.44829644       6.703E-07      0.15    <-- DIS
      56       5.44828403       5.44828098       5.588E-07      0.15    <-- DIS
      57       5.44826885       5.44826637       4.561E-07      0.16    <-- DIS
      58       5.44825450       5.44825253       3.615E-07      0.16    <-- DIS
      59       5.44824093       5.44823944       2.748E-07      0.16    <-- DIS
      60       5.44822809       5.44822702       1.954E-07      0.17    <-- DIS
      61       5.44821592       5.44821525       1.229E-07      0.17    <-- DIS
      62       5.44820439       5.44820408       5.697E-08      0.17    <-- DIS
      63       5.44819345       5.44819347      -2.861E-09      0.17    <-- DIS
      64       5.44818307       5.44818338      -5.694E-08      0.18    <-- DIS
      65       5.44817321       5.44817379      -1.056E-07      0.18    <-- DIS
      66       5.44816384       5.44816465      -1.493E-07      0.18    <-- DIS
      67       5.44815492       5.44815594      -1.882E-07      0.19    <-- DIS
      68       5.44814643       5.44814764      -2.227E-07      0.19    <-- DIS
      69       5.44813834       5.44813972      -2.531E-07      0.19    <-- DIS
      70       5.44813062       5.44813215      -2.797E-07      0.20    <-- DIS
      71       5.44812326       5.44812490      -3.028E-07      0.20    <-- DIS
      72       5.44811622       5.44811797      -3.226E-07      0.20    <-- DIS
      73       5.44810949       5.44811134      -3.394E-07      0.20    <-- DIS
      74       5.44810305       5.44810497      -3.533E-07      0.21    <-- DIS
      75       5.44809687       5.44809886      -3.648E-07      0.21    <-- DIS
      76       5.44809096       5.44809299      -3.738E-07      0.21    <-- DIS
      77       5.44808528       5.44808735      -3.807E-07      0.22    <-- DIS
      78       5.44807982       5.44808192      -3.856E-07      0.22    <-- DIS
      79       5.44807457       5.44807669      -3.888E-07      0.22    <-- DIS
      80       5.44806952       5.44807164      -3.903E-07      0.23    <-- DIS
      81       5.44806465       5.44806678      -3.903E-07      0.23    <-- DIS
      82       5.44805996       5.44806208      -3.889E-07      0.23    <-- DIS
      83       5.44805543       5.44805753      -3.864E-07      0.23    <-- DIS
      84       5.44805105       5.44805314      -3.828E-07      0.24    <-- DIS
      85       5.44804682       5.44804888      -3.782E-07      0.24    <-- DIS
      86       5.44804272       5.44804475      -3.727E-07      0.24    <-- DIS
      87       5.44803875       5.44804075      -3.665E-07      0.25    <-- DIS
      88       5.44803490       5.44803686      -3.596E-07      0.25    <-- DIS
      89       5.44803116       5.44803308      -3.522E-07      0.25    <-- DIS
      90       5.44802754       5.44802941      -3.442E-07      0.25    <-- DIS
      91       5.44802401       5.44802584      -3.358E-07      0.26    <-- DIS
      92       5.44802058       5.44802236      -3.271E-07      0.26    <-- DIS
      93       5.44801724       5.44801897      -3.180E-07      0.26    <-- DIS
      94       5.44801398       5.44801566      -3.087E-07      0.27    <-- DIS
      95       5.44801081       5.44801244      -2.992E-07      0.27    <-- DIS
      96       5.44800771       5.44800928      -2.895E-07      0.27    <-- DIS
      97       5.44800468       5.44800621      -2.798E-07      0.28    <-- DIS
      98       5.44800172       5.44800320      -2.700E-07      0.28    <-- DIS
      99       5.44799883       5.44800025      -2.601E-07      0.28    <-- DIS
     100       5.44799600       5.44799737      -2.503E-07      0.28    <-- DIS
     101       5.44799323       5.44799454      -2.405E-07      0.29    <-- DIS
     102       5.44799052       5.44799178      -2.307E-07      0.29    <-- DIS
     103       5.44798786       5.44798907      -2.210E-07      0.29    <-- DIS
     104       5.44798525       5.44798641      -2.115E-07      0.30    <-- DIS
     105       5.44798269       5.44798379      -2.020E-07      0.30    <-- DIS
     106       5.44798018       5.44798123      -1.927E-07      0.30    <-- DIS
     107       5.44797771       5.44797871      -1.835E-07      0.31    <-- DIS
     108       5.44797529       5.44797624      -1.745E-07      0.31    <-- DIS
     109       5.44797291       5.44797381      -1.657E-07      0.31    <-- DIS
     110       5.44797056       5.44797142      -1.571E-07      0.31    <-- DIS
     111       5.44796826       5.44796906      -1.486E-07      0.32    <-- DIS
     112       5.44796599       5.44796675      -1.404E-07      0.32    <-- DIS
     113       5.44796375       5.44796447      -1.323E-07      0.32    <-- DIS
     114       5.44796155       5.44796223      -1.245E-07      0.33    <-- DIS
     115       5.44795938       5.44796002      -1.169E-07      0.33    <-- DIS
     116       5.44795724       5.44795784      -1.095E-07      0.33    <-- DIS
     117       5.44795514       5.44795570      -1.023E-07      0.34    <-- DIS
     118       5.44795306       5.44795358      -9.535E-08      0.34    <-- DIS
     119       5.44795101       5.44795150      -8.860E-08      0.34    <-- DIS
     120       5.44794899       5.44794944      -8.207E-08      0.34    <-- DIS
     121       5.44794700       5.44794741      -7.576E-08      0.35    <-- DIS
     122       5.44794503       5.44794541      -6.967E-08      0.35    <-- DIS
     123       5.44794309       5.44794344      -6.380E-08      0.35    <-- DIS
     124       5.44794117       5.44794149      -5.813E-08      0.36    <-- DIS
     125       5.44793928       5.44793956      -5.268E-08      0.36    <-- DIS
     126       5.44793740       5.44793766      -4.744E-08      0.36    <-- DIS
     127       5.44793556       5.44793579      -4.240E-08      0.36    <-- DIS
     128       5.44793373       5.44793394      -3.756E-08      0.37    <-- DIS
     129       5.44793193       5.44793211      -3.292E-08      0.37    <-- DIS
     130       5.44793014       5.44793030      -2.847E-08      0.37    <-- DIS
     131       5.44792838       5.44792851      -2.421E-08      0.38    <-- DIS
     132       5.44792664       5.44792675      -2.014E-08      0.38    <-- DIS
     133       5.44792492       5.44792501      -1.625E-08      0.38    <-- DIS
     134       5.44792322       5.44792328      -1.254E-08      0.38    <-- DIS
     135       5.44792153       5.44792158      -9.006E-09      0.39    <-- DIS
     136       5.44791987       5.44791990      -5.639E-09      0.39    <-- DIS
     137       5.44791822       5.44791823      -2.437E-09      0.39    <-- DIS
     138       5.44791659       5.44791659       6.039E-10      0.40    <-- DIS
     139       5.44791498       5.44791496       3.489E-09      0.40    <-- DIS
     140       5.44791339       5.44791336       6.221E-09      0.40    <-- DIS
     141       5.44791181       5.44791177       8.806E-09      0.40    <-- DIS
     142       5.44791026       5.44791019       1.125E-08      0.41    <-- DIS
     143       5.44790871       5.44790864       1.355E-08      0.41    <-- DIS
     144       5.44790719       5.44790710       1.572E-08      0.41    <-- DIS
     145       5.44790568       5.44790558       1.776E-08      0.42    <-- DIS
     146       5.44790418       5.44790408       1.967E-08      0.42    <-- DIS
     147       5.44790271       5.44790259       2.145E-08      0.42    <-- DIS
     148       5.44790124       5.44790112       2.312E-08      0.42    <-- DIS
     149       5.44789980       5.44789966       2.468E-08      0.43    <-- DIS
     150       5.44789837       5.44789822       2.613E-08      0.43    <-- DIS
     151       5.44789695       5.44789680       2.747E-08      0.43    <-- DIS
     152       5.44789555       5.44789539       2.870E-08      0.44    <-- DIS
     153       5.44789416       5.44789399       2.984E-08      0.44    <-- DIS
     154       5.44789278       5.44789262       3.088E-08      0.44    <-- DIS
     155       5.44789142       5.44789125       3.183E-08      0.44    <-- DIS
     156       5.44789008       5.44788990       3.269E-08      0.45    <-- DIS
     157       5.44788875       5.44788857       3.347E-08      0.45    <-- DIS
     158       5.44788743       5.44788724       3.416E-08      0.45    <-- DIS
     159       5.44788613       5.44788594       3.478E-08      0.46    <-- DIS
     160       5.44788483       5.44788464       3.532E-08      0.46    <-- DIS
     161       5.44788356       5.44788336       3.579E-08      0.46    <-- DIS
     162       5.44788229       5.44788209       3.619E-08      0.47    <-- DIS
     163       5.44788104       5.44788084       3.652E-08      0.47    <-- DIS
     164       5.44787980       5.44787960       3.679E-08      0.47    <-- DIS
     165       5.44787858       5.44787837       3.699E-08      0.47    <-- DIS
     166       5.44787736       5.44787716       3.714E-08      0.48    <-- DIS
     167       5.44787616       5.44787596       3.724E-08      0.48    <-- DIS
     168       5.44787497       5.44787477       3.728E-08      0.48    <-- DIS
     169       5.44787380       5.44787359       3.727E-08      0.48    <-- DIS
     170       5.44787263       5.44787243       3.721E-08      0.49    <-- DIS
     171       5.44787148       5.44787128       3.711E-08      0.49    <-- DIS
     172       5.44787034       5.44787014       3.696E-08      0.49    <-- DIS
     173       5.44786921       5.44786901       3.677E-08      0.50    <-- DIS
     174       5.44786809       5.44786789       3.654E-08      0.50    <-- DIS
     175       5.44786698       5.44786679       3.628E-08      0.50    <-- DIS
     176       5.44786589       5.44786569       3.598E-08      0.50    <-- DIS
     177       5.44786481       5.44786461       3.564E-08      0.51    <-- DIS
     178       5.44786373       5.44786354       3.527E-08      0.51    <-- DIS
     179       5.44786267       5.44786248       3.488E-08      0.51    <-- DIS
     180       5.44786162       5.44786143       3.445E-08      0.52    <-- DIS
     181       5.44786058       5.44786040       3.400E-08      0.52    <-- DIS
     182       5.44785955       5.44785937       3.352E-08      0.52    <-- DIS
     183       5.44785854       5.44785836       3.302E-08      0.52    <-- DIS
     184       5.44785753       5.44785735       3.250E-08      0.53    <-- DIS
     185       5.44785653       5.44785636       3.195E-08      0.53    <-- DIS
     186       5.44785554       5.44785537       3.139E-08      0.53    <-- DIS
     187       5.44785457       5.44785440       3.081E-08      0.54    <-- DIS
     188       5.44785360       5.44785344       3.021E-08      0.54    <-- DIS
     189       5.44785264       5.44785248       2.960E-08      0.54    <-- DIS
     190       5.44785170       5.44785154       2.897E-08      0.54    <-- DIS
     191       5.44785076       5.44785061       2.833E-08      0.55    <-- DIS
     192       5.44784983       5.44784968       2.768E-08      0.55    <-- DIS
     193       5.44784892       5.44784877       2.701E-08      0.55    <-- DIS
     194       5.44784801       5.44784786       2.634E-08      0.56    <-- DIS
     195       5.44784711       5.44784697       2.566E-08      0.56    <-- DIS
     196       5.44784622       5.44784608       2.497E-08      0.56    <-- DIS
     197       5.44784534       5.44784521       2.427E-08      0.56    <-- DIS
     198       5.44784447       5.44784434       2.356E-08      0.57    <-- DIS
     199       5.44784361       5.44784348       2.285E-08      0.57    <-- DIS
     200       5.44784276       5.44784264       2.214E-08      0.57    <-- DIS
     201       5.44784191       5.44784180       2.142E-08      0.57    <-- DIS
     202       5.44784108       5.44784096       2.070E-08      0.58    <-- DIS
     203       5.44784025       5.44784014       1.998E-08      0.58    <-- DIS
     204       5.44783943       5.44783933       1.925E-08      0.58    <-- DIS
     205       5.44783863       5.44783852       1.853E-08      0.59    <-- DIS
     206       5.44783783       5.44783773       1.780E-08      0.59    <-- DIS
     207       5.44783703       5.44783694       1.707E-08      0.59    <-- DIS
     208       5.44783625       5.44783616       1.634E-08      0.59    <-- DIS
     209       5.44783547       5.44783539       1.562E-08      0.60    <-- DIS
     210       5.44783471       5.44783463       1.489E-08      0.60    <-- DIS
     211       5.44783395       5.44783387       1.417E-08      0.60    <-- DIS
     212       5.44783320       5.44783312       1.345E-08      0.61    <-- DIS
     213       5.44783245       5.44783238       1.274E-08      0.61    <-- DIS
     214       5.44783172       5.44783165       1.202E-08      0.61    <-- DIS
     215       5.44783099       5.44783093       1.131E-08      0.61    <-- DIS
     216       5.44783027       5.44783021       1.061E-08      0.62    <-- DIS
     217       5.44782956       5.44782951       9.907E-09      0.62    <-- DIS
     218       5.44782885       5.44782880       9.211E-09      0.62    <-- DIS
     219       5.44782816       5.44782811       8.520E-09      0.62    <-- DIS
     220       5.44782747       5.44782742       7.835E-09      0.63    <-- DIS
     221       5.44782678       5.44782675       7.155E-09      0.63    <-- DIS
     222       5.44782611       5.44782607       6.481E-09      0.63    <-- DIS
     223       5.44782544       5.44782541       5.814E-09      0.64    <-- DIS
     224       5.44782478       5.44782475       5.153E-09      0.64    <-- DIS
     225       5.44782413       5.44782410       4.498E-09      0.64    <-- DIS
     226       5.44782348       5.44782346       3.851E-09      0.64    <-- DIS
     227       5.44782284       5.44782282       3.211E-09      0.65    <-- DIS
     228       5.44782221       5.44782219       2.578E-09      0.65    <-- DIS
     229       5.44782158       5.44782157       1.952E-09      0.65    <-- DIS
     230       5.44782096       5.44782095       1.334E-09      0.66    <-- DIS
     231       5.44782035       5.44782034       7.236E-10      0.66    <-- DIS
     232       5.44781974       5.44781974       1.211E-10      0.66    <-- DIS
     233       5.44781914       5.44781914      -4.734E-10      0.66    <-- DIS
     234       5.44781854       5.44781855      -1.060E-09      0.67    <-- DIS
     235       5.44781796       5.44781797      -1.638E-09      0.67    <-- DIS
     236       5.44781737       5.44781739      -2.208E-09      0.67    <-- DIS
     237       5.44781680       5.44781681      -2.769E-09      0.68    <-- DIS
     238       5.44781623       5.44781625      -3.323E-09      0.68    <-- DIS
     239       5.44781567       5.44781569      -3.867E-09      0.68    <-- DIS
     240       5.44781511       5.44781513      -4.403E-09      0.68    <-- DIS
     241       5.44781456       5.44781459      -4.931E-09      0.69    <-- DIS
     242       5.44781401       5.44781404      -5.449E-09      0.69    <-- DIS
     243       5.44781347       5.44781351      -5.960E-09      0.69    <-- DIS
     244       5.44781294       5.44781298      -6.461E-09      0.70    <-- DIS
     245       5.44781241       5.44781245      -6.954E-09      0.70    <-- DIS
     246       5.44781189       5.44781193      -7.437E-09      0.70    <-- DIS
     247       5.44781137       5.44781142      -7.913E-09      0.70    <-- DIS
     248       5.44781086       5.44781091      -8.379E-09      0.71    <-- DIS
     249       5.44781035       5.44781040      -8.836E-09      0.71    <-- DIS
     250       5.44780985       5.44780990      -9.285E-09      0.71    <-- DIS
     251       5.44780936       5.44780941      -9.725E-09      0.72    <-- DIS
     252       5.44780887       5.44780892      -1.016E-08      0.72    <-- DIS
     253       5.44780838       5.44780844      -1.058E-08      0.72    <-- DIS
     254       5.44780790       5.44780796      -1.099E-08      0.72    <-- DIS
     255       5.44780743       5.44780749      -1.140E-08      0.73    <-- DIS
     256       5.44780696       5.44780702      -1.180E-08      0.73    <-- DIS
     257       5.44780650       5.44780656      -1.218E-08      0.73    <-- DIS
     258       5.44780604       5.44780610      -1.256E-08      0.73    <-- DIS
     259       5.44780558       5.44780565      -1.293E-08      0.74    <-- DIS
     260       5.44780513       5.44780520      -1.330E-08      0.74    <-- DIS
     261       5.44780469       5.44780476      -1.365E-08      0.74    <-- DIS
     262       5.44780425       5.44780432      -1.400E-08      0.75    <-- DIS
     263       5.44780381       5.44780389      -1.433E-08      0.75    <-- DIS
     264       5.44780338       5.44780346      -1.466E-08      0.75    <-- DIS
     265       5.44780295       5.44780303      -1.499E-08      0.75    <-- DIS
     266       5.44780253       5.44780261      -1.530E-08      0.76    <-- DIS
     267       5.44780211       5.44780220      -1.560E-08      0.76    <-- DIS
     268       5.44780170       5.44780179      -1.590E-08      0.76    <-- DIS
     269       5.44780129       5.44780138      -1.619E-08      0.77    <-- DIS
     270       5.44780089       5.44780098      -1.647E-08      0.77    <-- DIS
     271       5.44780049       5.44780058      -1.675E-08      0.77    <-- DIS
     272       5.44780009       5.44780018      -1.701E-08      0.77    <-- DIS
     273       5.44779970       5.44779979      -1.727E-08      0.78    <-- DIS
     274       5.44779931       5.44779941      -1.752E-08      0.78    <-- DIS
     275       5.44779893       5.44779902      -1.776E-08      0.78    <-- DIS
     276       5.44779855       5.44779865      -1.800E-08      0.79    <-- DIS
     277       5.44779817       5.44779827      -1.823E-08      0.79    <-- DIS
     278       5.44779780       5.44779790      -1.845E-08      0.79    <-- DIS
     279       5.44779743       5.44779753      -1.867E-08      0.79    <-- DIS
     280       5.44779707       5.44779717      -1.887E-08      0.80    <-- DIS
     281       5.44779671       5.44779681      -1.907E-08      0.80    <-- DIS
     282       5.44779635       5.44779646      -1.927E-08      0.80    <-- DIS
     283       5.44779600       5.44779611      -1.945E-08      0.80    <-- DIS
     284       5.44779565       5.44779576      -1.964E-08      0.81    <-- DIS
     285       5.44779531       5.44779541      -1.981E-08      0.81    <-- DIS
     286       5.44779496       5.44779507      -1.998E-08      0.81    <-- DIS
     287       5.44779463       5.44779474      -2.014E-08      0.82    <-- DIS
     288       5.44779429       5.44779440      -2.029E-08      0.82    <-- DIS
     289       5.44779396       5.44779407      -2.044E-08      0.82    <-- DIS
     290       5.44779363       5.44779374      -2.058E-08      0.82    <-- DIS
     291       5.44779331       5.44779342      -2.072E-08      0.83    <-- DIS
     292       5.44779299       5.44779310      -2.085E-08      0.83    <-- DIS
     293       5.44779267       5.44779278      -2.097E-08      0.83    <-- DIS
     294       5.44779235       5.44779247      -2.109E-08      0.84    <-- DIS
     295       5.44779204       5.44779216      -2.120E-08      0.84    <-- DIS
     296       5.44779174       5.44779185      -2.131E-08      0.84    <-- DIS
     297       5.44779143       5.44779155      -2.141E-08      0.84    <-- DIS
     298       5.44779113       5.44779125      -2.150E-08      0.85    <-- DIS
     299       5.44779083       5.44779095      -2.160E-08      0.85    <-- DIS
     300       5.44779054       5.44779065      -2.168E-08      0.85    <-- DIS
     301       5.44779024       5.44779036      -2.176E-08      0.86    <-- DIS
     302       5.44778995       5.44779007      -2.183E-08      0.86    <-- DIS
     303       5.44778967       5.44778979      -2.190E-08      0.86    <-- DIS
     304       5.44778938       5.44778950      -2.197E-08      0.86    <-- DIS
     305       5.44778910       5.44778922      -2.203E-08      0.87    <-- DIS
     306       5.44778882       5.44778895      -2.208E-08      0.87    <-- DIS
     307       5.44778855       5.44778867      -2.213E-08      0.87    <-- DIS
     308       5.44778828       5.44778840      -2.218E-08      0.87    <-- DIS
     309       5.44778801       5.44778813      -2.222E-08      0.88    <-- DIS
     310       5.44778774       5.44778786      -2.226E-08      0.88    <-- DIS
     311       5.44778748       5.44778760      -2.229E-08      0.88    <-- DIS
     312       5.44778722       5.44778734      -2.232E-08      0.89    <-- DIS
     313       5.44778696       5.44778708      -2.234E-08      0.89    <-- DIS
     314       5.44778670       5.44778682      -2.236E-08      0.89    <-- DIS
     315       5.44778645       5.44778657      -2.238E-08      0.89    <-- DIS
     316       5.44778620       5.44778632      -2.239E-08      0.90    <-- DIS
     317       5.44778595       5.44778607      -2.240E-08      0.90    <-- DIS
     318       5.44778570       5.44778582      -2.240E-08      0.90    <-- DIS
     319       5.44778546       5.44778558      -2.240E-08      0.91    <-- DIS
     320       5.44778522       5.44778534      -2.240E-08      0.91    <-- DIS
     321       5.44778498       5.44778510      -2.239E-08      0.91    <-- DIS
     322       5.44778474       5.44778486      -2.238E-08      0.91    <-- DIS
     323       5.44778451       5.44778463      -2.236E-08      0.92    <-- DIS
     324       5.44778428       5.44778440      -2.235E-08      0.92    <-- DIS
     325       5.44778405       5.44778417      -2.233E-08      0.92    <-- DIS
     326       5.44778382       5.44778394      -2.230E-08      0.92    <-- DIS
     327       5.44778360       5.44778372      -2.227E-08      0.93    <-- DIS
     328       5.44778337       5.44778349      -2.224E-08      0.93    <-- DIS
     329       5.44778315       5.44778327      -2.221E-08      0.93    <-- DIS
     330       5.44778293       5.44778306      -2.217E-08      0.94    <-- DIS
     331       5.44778272       5.44778284      -2.213E-08      0.94    <-- DIS
     332       5.44778250       5.44778262      -2.209E-08      0.94    <-- DIS
     333       5.44778229       5.44778241      -2.205E-08      0.94    <-- DIS
     334       5.44778208       5.44778220      -2.200E-08      0.95    <-- DIS
     335       5.44778187       5.44778199      -2.195E-08      0.95    <-- DIS
     336       5.44778167       5.44778179      -2.189E-08      0.95    <-- DIS
     337       5.44778146       5.44778158      -2.184E-08      0.96    <-- DIS
     338       5.44778126       5.44778138      -2.178E-08      0.96    <-- DIS
     339       5.44778106       5.44778118      -2.172E-08      0.96    <-- DIS
     340       5.44778086       5.44778098      -2.166E-08      0.96    <-- DIS
     341       5.44778067       5.44778079      -2.159E-08      0.97    <-- DIS
     342       5.44778047       5.44778059      -2.152E-08      0.97    <-- DIS
     343       5.44778028       5.44778040      -2.145E-08      0.97    <-- DIS
     344       5.44778009       5.44778021      -2.138E-08      0.97    <-- DIS
     345       5.44777990       5.44778002      -2.131E-08      0.98    <-- DIS
     346       5.44777971       5.44777983      -2.123E-08      0.98    <-- DIS
     347       5.44777953       5.44777964      -2.116E-08      0.98    <-- DIS
     348       5.44777935       5.44777946      -2.108E-08      0.99    <-- DIS
     349       5.44777916       5.44777928      -2.099E-08      0.99    <-- DIS
     350       5.44777898       5.44777910      -2.091E-08      0.99    <-- DIS
     351       5.44777881       5.44777892      -2.083E-08      0.99    <-- DIS
     352       5.44777863       5.44777874      -2.074E-08      1.00    <-- DIS
     353       5.44777845       5.44777857      -2.065E-08      1.00    <-- DIS
     354       5.44777828       5.44777839      -2.056E-08      1.00    <-- DIS
     355       5.44777811       5.44777822      -2.047E-08      1.00    <-- DIS
     356       5.44777794       5.44777805      -2.037E-08      1.01    <-- DIS
     357       5.44777777       5.44777788      -2.028E-08      1.01    <-- DIS
     358       5.44777760       5.44777771      -2.018E-08      1.01    <-- DIS
     359       5.44777744       5.44777755      -2.009E-08      1.01    <-- DIS
     360       5.44777727       5.44777738      -1.999E-08      1.02    <-- DIS
     361       5.44777711       5.44777722      -1.989E-08      1.02    <-- DIS
     362       5.44777695       5.44777706      -1.979E-08      1.02    <-- DIS
     363       5.44777679       5.44777690      -1.968E-08      1.03    <-- DIS
     364       5.44777663       5.44777674      -1.958E-08      1.03    <-- DIS
     365       5.44777648       5.44777658      -1.947E-08      1.03    <-- DIS
     366       5.44777632       5.44777643      -1.937E-08      1.03    <-- DIS
     367       5.44777617       5.44777627      -1.926E-08      1.04    <-- DIS
     368       5.44777601       5.44777612      -1.915E-08      1.04    <-- DIS
     369       5.44777586       5.44777597      -1.904E-08      1.04    <-- DIS
     370       5.44777571       5.44777582      -1.893E-08      1.04    <-- DIS
     371       5.44777556       5.44777567      -1.882E-08      1.05    <-- DIS
     372       5.44777542       5.44777552      -1.871E-08      1.05    <-- DIS
     373       5.44777527       5.44777537      -1.860E-08      1.05    <-- DIS
     374       5.44777513       5.44777523      -1.848E-08      1.06    <-- DIS
     375       5.44777498       5.44777508      -1.837E-08      1.06    <-- DIS
     376       5.44777484       5.44777494      -1.825E-08      1.06    <-- DIS
     377       5.44777470       5.44777480      -1.814E-08      1.06    <-- DIS
     378       5.44777456       5.44777466      -1.802E-08      1.07    <-- DIS
     379       5.44777442       5.44777452      -1.790E-08      1.07    <-- DIS
     380       5.44777429       5.44777438      -1.778E-08      1.07    <-- DIS
     381       5.44777415       5.44777425      -1.766E-08      1.08    <-- DIS
     382       5.44777402       5.44777411      -1.755E-08      1.08    <-- DIS
     383       5.44777388       5.44777398      -1.743E-08      1.08    <-- DIS
     384       5.44777375       5.44777384      -1.731E-08      1.08    <-- DIS
     385       5.44777362       5.44777371      -1.718E-08      1.09    <-- DIS
     386       5.44777349       5.44777358      -1.706E-08      1.09    <-- DIS
     387       5.44777336       5.44777345      -1.694E-08      1.09    <-- DIS
     388       5.44777323       5.44777332      -1.682E-08      1.09    <-- DIS
     389       5.44777311       5.44777320      -1.670E-08      1.10    <-- DIS
     390       5.44777298       5.44777307      -1.657E-08      1.10    <-- DIS
     391       5.44777285       5.44777294      -1.645E-08      1.10    <-- DIS
     392       5.44777273       5.44777282      -1.633E-08      1.11    <-- DIS
     393       5.44777261       5.44777270      -1.620E-08      1.11    <-- DIS
     394       5.44777249       5.44777257      -1.608E-08      1.11    <-- DIS
     395       5.44777237       5.44777245      -1.595E-08      1.11    <-- DIS
     396       5.44777225       5.44777233      -1.583E-08      1.12    <-- DIS
     397       5.44777213       5.44777221      -1.570E-08      1.12    <-- DIS
     398       5.44777201       5.44777210      -1.558E-08      1.12    <-- DIS
     399       5.44777189       5.44777198      -1.545E-08      1.12    <-- DIS
     400       5.44777178       5.44777186      -1.533E-08      1.13    <-- DIS
     401       5.44777166       5.44777175      -1.520E-08      1.13    <-- DIS
     402       5.44777155       5.44777163      -1.507E-08      1.13    <-- DIS
     403       5.44777144       5.44777152      -1.495E-08      1.14    <-- DIS
     404       5.44777133       5.44777141      -1.482E-08      1.14    <-- DIS
     405       5.44777121       5.44777129      -1.469E-08      1.14    <-- DIS
     406       5.44777110       5.44777118      -1.457E-08      1.15    <-- DIS
     407       5.44777099       5.44777107      -1.444E-08      1.15    <-- DIS
     408       5.44777089       5.44777096      -1.431E-08      1.15    <-- DIS
     409       5.44777078       5.44777086      -1.419E-08      1.15    <-- DIS
     410       5.44777067       5.44777075      -1.406E-08      1.16    <-- DIS
     411       5.44777057       5.44777064      -1.393E-08      1.16    <-- DIS
     412       5.44777046       5.44777054      -1.381E-08      1.16    <-- DIS
     413       5.44777036       5.44777043      -1.368E-08      1.16    <-- DIS
     414       5.44777025       5.44777033      -1.355E-08      1.17    <-- DIS
     415       5.44777015       5.44777022      -1.342E-08      1.17    <-- DIS
     416       5.44777005       5.44777012      -1.330E-08      1.17    <-- DIS
     417       5.44776995       5.44777002      -1.317E-08      1.18    <-- DIS
     418       5.44776985       5.44776992      -1.304E-08      1.18    <-- DIS
     419       5.44776975       5.44776982      -1.292E-08      1.18    <-- DIS
     420       5.44776965       5.44776972      -1.279E-08      1.18    <-- DIS
     421       5.44776955       5.44776962      -1.266E-08      1.19    <-- DIS
     422       5.44776946       5.44776952      -1.253E-08      1.19    <-- DIS
     423       5.44776936       5.44776943      -1.241E-08      1.19    <-- DIS
     424       5.44776926       5.44776933      -1.228E-08      1.19    <-- DIS
     425       5.44776917       5.44776923      -1.215E-08      1.20    <-- DIS
     426       5.44776907       5.44776914      -1.203E-08      1.20    <-- DIS
     427       5.44776898       5.44776904      -1.190E-08      1.20    <-- DIS
     428       5.44776889       5.44776895      -1.177E-08      1.21    <-- DIS
     429       5.44776879       5.44776886      -1.164E-08      1.21    <-- DIS
     430       5.44776870       5.44776877      -1.152E-08      1.21    <-- DIS
     431       5.44776861       5.44776867      -1.139E-08      1.21    <-- DIS
     432       5.44776852       5.44776858      -1.126E-08      1.22    <-- DIS
     433       5.44776843       5.44776849      -1.114E-08      1.22    <-- DIS
     434       5.44776834       5.44776840      -1.101E-08      1.22    <-- DIS
     435       5.44776826       5.44776831      -1.088E-08      1.22    <-- DIS
     436       5.44776817       5.44776823      -1.076E-08      1.23    <-- DIS
     437       5.44776808       5.44776814      -1.063E-08      1.23    <-- DIS
     438       5.44776799       5.44776805      -1.050E-08      1.23    <-- DIS
     439       5.44776791       5.44776796      -1.038E-08      1.24    <-- DIS
     440       5.44776782       5.44776788      -1.025E-08      1.24    <-- DIS
     441       5.44776774       5.44776779      -1.012E-08      1.24    <-- DIS
     442       5.44776765       5.44776771      -9.995E-09      1.24    <-- DIS
     443       5.44776757       5.44776762      -9.868E-09      1.25    <-- DIS
     444       5.44776749       5.44776754      -9.740E-09      1.25    <-- DIS
     445       5.44776740       5.44776746      -9.613E-09      1.25    <-- DIS
     446       5.44776732       5.44776737      -9.486E-09      1.25    <-- DIS
     447       5.44776724       5.44776729      -9.358E-09      1.26    <-- DIS
     448       5.44776716       5.44776721      -9.231E-09      1.26    <-- DIS
     449       5.44776708       5.44776713      -9.103E-09      1.26    <-- DIS
     450       5.44776700       5.44776705      -8.975E-09      1.27    <-- DIS
     451       5.44776692       5.44776697      -8.847E-09      1.27    <-- DIS
     452       5.44776684       5.44776689      -8.719E-09      1.27    <-- DIS
     453       5.44776676       5.44776681      -8.590E-09      1.27    <-- DIS
     454       5.44776669       5.44776673      -8.462E-09      1.28    <-- DIS
     455       5.44776661       5.44776665      -8.333E-09      1.28    <-- DIS
     456       5.44776653       5.44776658      -8.204E-09      1.28    <-- DIS
     457       5.44776645       5.44776650      -8.074E-09      1.29    <-- DIS
     458       5.44776638       5.44776642      -7.944E-09      1.29    <-- DIS
     459       5.44776630       5.44776635      -7.814E-09      1.29    <-- DIS
     460       5.44776623       5.44776627      -7.683E-09      1.29    <-- DIS
     461       5.44776615       5.44776619      -7.552E-09      1.30    <-- DIS
     462       5.44776608       5.44776612      -7.420E-09      1.30    <-- DIS
     463       5.44776600       5.44776604      -7.288E-09      1.30    <-- DIS
     464       5.44776593       5.44776597      -7.156E-09      1.30    <-- DIS
     465       5.44776586       5.44776590      -7.023E-09      1.31    <-- DIS
     466       5.44776579       5.44776582      -6.889E-09      1.31    <-- DIS
     467       5.44776571       5.44776575      -6.754E-09      1.31    <-- DIS
     468       5.44776564       5.44776568      -6.619E-09      1.32    <-- DIS
     469       5.44776557       5.44776560      -6.484E-09      1.32    <-- DIS
     470       5.44776550       5.44776553      -6.347E-09      1.32    <-- DIS
     471       5.44776543       5.44776546      -6.210E-09      1.32    <-- DIS
     472       5.44776536       5.44776539      -6.072E-09      1.33    <-- DIS
     473       5.44776529       5.44776532      -5.933E-09      1.33    <-- DIS
     474       5.44776522       5.44776525      -5.793E-09      1.33    <-- DIS
     475       5.44776515       5.44776518      -5.652E-09      1.33    <-- DIS
     476       5.44776508       5.44776511      -5.509E-09      1.34    <-- DIS
     477       5.44776501       5.44776504      -5.366E-09      1.34    <-- DIS
     478       5.44776494       5.44776497      -5.222E-09      1.34    <-- DIS
     479       5.44776487       5.44776490      -5.076E-09      1.35    <-- DIS
     480       5.44776480       5.44776483      -4.929E-09      1.35    <-- DIS
     481       5.44776474       5.44776476      -4.781E-09      1.35    <-- DIS
     482       5.44776467       5.44776469      -4.632E-09      1.35    <-- DIS
     483       5.44776460       5.44776463      -4.480E-09      1.36    <-- DIS
     484       5.44776453       5.44776456      -4.328E-09      1.36    <-- DIS
     485       5.44776447       5.44776449      -4.173E-09      1.36    <-- DIS
     486       5.44776440       5.44776442      -4.017E-09      1.36    <-- DIS
     487       5.44776433       5.44776436      -3.859E-09      1.37    <-- DIS
     488       5.44776427       5.44776429      -3.700E-09      1.37    <-- DIS
     489       5.44776420       5.44776422      -3.538E-09      1.37    <-- DIS
     490       5.44776414       5.44776415      -3.374E-09      1.38    <-- DIS
     491       5.44776407       5.44776409      -3.208E-09      1.38    <-- DIS
     492       5.44776400       5.44776402      -3.040E-09      1.38    <-- DIS
     493       5.44776394       5.44776396      -2.869E-09      1.38    <-- DIS
     494       5.44776387       5.44776389      -2.696E-09      1.39    <-- DIS
     495       5.44776381       5.44776382      -2.520E-09      1.39    <-- DIS
     496       5.44776374       5.44776376      -2.342E-09      1.39    <-- DIS
     497       5.44776368       5.44776369      -2.161E-09      1.39    <-- DIS
     498       5.44776361       5.44776363      -1.977E-09      1.40    <-- DIS
     499       5.44776355       5.44776356      -1.790E-09      1.40    <-- DIS
     500       5.44776349       5.44776349      -1.599E-09      1.40    <-- DIS
     501       5.44776342       5.44776343      -1.406E-09      1.41    <-- DIS
     502       5.44776336       5.44776336      -1.208E-09      1.41    <-- DIS
     503       5.44776329       5.44776330      -1.008E-09      1.41    <-- DIS
     504       5.44776323       5.44776323      -8.034E-10      1.41    <-- DIS
     505       5.44776316       5.44776317      -5.950E-10      1.42    <-- DIS
     506       5.44776310       5.44776310      -3.827E-10      1.42    <-- DIS
     507       5.44776303       5.44776303      -1.660E-10      1.42    <-- DIS
     508       5.44776297       5.44776297       5.498E-11      1.42    <-- DIS
     509       5.44776290       5.44776290       2.806E-10      1.43    <-- DIS
     510       5.44776284       5.44776284       5.109E-10      1.43    <-- DIS
     511       5.44776277       5.44776277       7.463E-10      1.43    <-- DIS
     512       5.44776271       5.44776270       9.867E-10      1.44    <-- DIS
     513       5.44776264       5.44776264       1.233E-09      1.44    <-- DIS
     514       5.44776258       5.44776257       1.484E-09      1.44    <-- DIS
     515       5.44776251       5.44776250       1.741E-09      1.44    <-- DIS
     516       5.44776245       5.44776244       2.004E-09      1.45    <-- DIS
     517       5.44776238       5.44776237       2.274E-09      1.45    <-- DIS
     518       5.44776232       5.44776230       2.550E-09      1.45    <-- DIS
     519       5.44776225       5.44776223       2.833E-09      1.46    <-- DIS
     520       5.44776218       5.44776217       3.122E-09      1.46    <-- DIS
     521       5.44776212       5.44776210       3.419E-09      1.46    <-- DIS
     522       5.44776205       5.44776203       3.724E-09      1.47    <-- DIS
     523       5.44776198       5.44776196       4.036E-09      1.47    <-- DIS
     524       5.44776191       5.44776189       4.357E-09      1.47    <-- DIS
     525       5.44776184       5.44776182       4.686E-09      1.48    <-- DIS
     526       5.44776178       5.44776175       5.024E-09      1.48    <-- DIS
     527       5.44776171       5.44776168       5.371E-09      1.48    <-- DIS
     528       5.44776164       5.44776161       5.728E-09      1.48    <-- DIS
     529       5.44776157       5.44776153       6.095E-09      1.49    <-- DIS
     530       5.44776150       5.44776146       6.471E-09      1.49    <-- DIS
     531       5.44776142       5.44776139       6.859E-09      1.49    <-- DIS
     532       5.44776135       5.44776131       7.257E-09      1.50    <-- DIS
     533       5.44776128       5.44776124       7.667E-09      1.50    <-- DIS
     534       5.44776121       5.44776116       8.088E-09      1.50    <-- DIS
     535       5.44776113       5.44776109       8.523E-09      1.50    <-- DIS
     536       5.44776106       5.44776101       8.969E-09      1.51    <-- DIS
     537       5.44776098       5.44776093       9.429E-09      1.51    <-- DIS
     538       5.44776091       5.44776085       9.903E-09      1.51    <-- DIS
     539       5.44776083       5.44776077       1.039E-08      1.52    <-- DIS
     540       5.44776075       5.44776069       1.089E-08      1.52    <-- DIS
     541       5.44776067       5.44776061       1.141E-08      1.52    <-- DIS
     542       5.44776059       5.44776053       1.195E-08      1.52    <-- DIS
     543       5.44776051       5.44776044       1.250E-08      1.53    <-- DIS
     544       5.44776043       5.44776036       1.307E-08      1.53    <-- DIS
     545       5.44776035       5.44776027       1.365E-08      1.53    <-- DIS
     546       5.44776026       5.44776019       1.426E-08      1.53    <-- DIS
     547       5.44776018       5.44776010       1.488E-08      1.54    <-- DIS
     548       5.44776009       5.44776001       1.552E-08      1.54    <-- DIS
     549       5.44776000       5.44775992       1.619E-08      1.54    <-- DIS
     550       5.44775992       5.44775982       1.687E-08      1.55    <-- DIS
     551       5.44775982       5.44775973       1.758E-08      1.55    <-- DIS
     552       5.44775973       5.44775963       1.831E-08      1.55    <-- DIS
     553       5.44775964       5.44775954       1.907E-08      1.55    <-- DIS
     554       5.44775954       5.44775944       1.984E-08      1.56    <-- DIS
     555       5.44775945       5.44775933       2.065E-08      1.56    <-- DIS
     556       5.44775935       5.44775923       2.148E-08      1.56    <-- DIS
     557       5.44775925       5.44775913       2.234E-08      1.56    <-- DIS
     558       5.44775914       5.44775902       2.323E-08      1.57    <-- DIS
     559       5.44775904       5.44775891       2.414E-08      1.57    <-- DIS
     560       5.44775893       5.44775880       2.509E-08      1.57    <-- DIS
     561       5.44775883       5.44775868       2.607E-08      1.58    <-- DIS
     562       5.44775871       5.44775857       2.708E-08      1.58    <-- DIS
     563       5.44775860       5.44775845       2.813E-08      1.58    <-- DIS
     564       5.44775849       5.44775833       2.921E-08      1.58    <-- DIS
     565       5.44775837       5.44775820       3.033E-08      1.59    <-- DIS
     566       5.44775825       5.44775808       3.149E-08      1.59    <-- DIS
     567       5.44775812       5.44775795       3.269E-08      1.59    <-- DIS
     568       5.44775800       5.44775781       3.393E-08      1.59    <-- DIS
     569       5.44775787       5.44775768       3.521E-08      1.60    <-- DIS
     570       5.44775774       5.44775754       3.653E-08      1.60    <-- DIS
     571       5.44775760       5.44775739       3.791E-08      1.60    <-- DIS
     572       5.44775746       5.44775725       3.932E-08      1.60    <-- DIS
     573       5.44775732       5.44775710       4.079E-08      1.61    <-- DIS
     574       5.44775717       5.44775694       4.231E-08      1.61    <-- DIS
     575       5.44775703       5.44775679       4.388E-08      1.61    <-- DIS
     576       5.44775687       5.44775662       4.551E-08      1.62    <-- DIS
     577       5.44775672       5.44775646       4.719E-08      1.62    <-- DIS
     578       5.44775655       5.44775629       4.894E-08      1.62    <-- DIS
     579       5.44775639       5.44775611       5.074E-08      1.62    <-- DIS
     580       5.44775622       5.44775593       5.261E-08      1.63    <-- DIS
     581       5.44775605       5.44775575       5.454E-08      1.63    <-- DIS
     582       5.44775587       5.44775556       5.654E-08      1.63    <-- DIS
     583       5.44775568       5.44775536       5.861E-08      1.63    <-- DIS
     584       5.44775549       5.44775516       6.076E-08      1.64    <-- DIS
     585       5.44775530       5.44775496       6.298E-08      1.64    <-- DIS
     586       5.44775510       5.44775474       6.528E-08      1.64    <-- DIS
     587       5.44775489       5.44775453       6.766E-08      1.65    <-- DIS
     588       5.44775468       5.44775430       7.012E-08      1.65    <-- DIS
     589       5.44775446       5.44775407       7.268E-08      1.65    <-- DIS
     590       5.44775424       5.44775383       7.532E-08      1.65    <-- DIS
     591       5.44775401       5.44775358       7.806E-08      1.66    <-- DIS
     592       5.44775377       5.44775333       8.089E-08      1.66    <-- DIS
     593       5.44775353       5.44775307       8.383E-08      1.66    <-- DIS
     594       5.44775328       5.44775280       8.687E-08      1.67    <-- DIS
     595       5.44775302       5.44775253       9.003E-08      1.67    <-- DIS
     596       5.44775275       5.44775224       9.329E-08      1.67    <-- DIS
     597       5.44775247       5.44775195       9.667E-08      1.67    <-- DIS
     598       5.44775219       5.44775164       1.002E-07      1.68    <-- DIS
     599       5.44775190       5.44775133       1.038E-07      1.68    <-- DIS
     600       5.44775159       5.44775101       1.076E-07      1.68    <-- DIS
     601       5.44775128       5.44775067       1.115E-07      1.68    <-- DIS
     602       5.44775096       5.44775033       1.155E-07      1.69    <-- DIS
     603       5.44775063       5.44774998       1.197E-07      1.69    <-- DIS
     604       5.44775029       5.44774961       1.240E-07      1.69    <-- DIS
     605       5.44774993       5.44774923       1.285E-07      1.70    <-- DIS
     606       5.44774957       5.44774884       1.331E-07      1.70    <-- DIS
     607       5.44774919       5.44774844       1.380E-07      1.70    <-- DIS
     608       5.44774880       5.44774802       1.429E-07      1.70    <-- DIS
     609       5.44774840       5.44774759       1.481E-07      1.71    <-- DIS
     610       5.44774798       5.44774715       1.535E-07      1.71    <-- DIS
     611       5.44774756       5.44774669       1.590E-07      1.71    <-- DIS
     612       5.44774711       5.44774621       1.648E-07      1.71    <-- DIS
     613       5.44774666       5.44774572       1.708E-07      1.72    <-- DIS
     614       5.44774618       5.44774522       1.769E-07      1.72    <-- DIS
     615       5.44774569       5.44774469       1.833E-07      1.72    <-- DIS
     616       5.44774519       5.44774415       1.900E-07      1.73    <-- DIS
     617       5.44774467       5.44774359       1.968E-07      1.73    <-- DIS
     618       5.44774413       5.44774302       2.040E-07      1.73    <-- DIS
     619       5.44774357       5.44774242       2.114E-07      1.73    <-- DIS
     620       5.44774299       5.44774180       2.190E-07      1.74    <-- DIS
     621       5.44774240       5.44774116       2.270E-07      1.74    <-- DIS
     622       5.44774178       5.44774050       2.352E-07      1.74    <-- DIS
     623       5.44774114       5.44773981       2.437E-07      1.74    <-- DIS
     624       5.44774048       5.44773911       2.525E-07      1.75    <-- DIS
     625       5.44773980       5.44773837       2.617E-07      1.75    <-- DIS
     626       5.44773909       5.44773762       2.712E-07      1.75    <-- DIS
     627       5.44773836       5.44773683       2.810E-07      1.75    <-- DIS
     628       5.44773761       5.44773602       2.912E-07      1.76    <-- DIS
     629       5.44773682       5.44773518       3.018E-07      1.76    <-- DIS
     630       5.44773602       5.44773431       3.127E-07      1.76    <-- DIS
     631       5.44773518       5.44773341       3.241E-07      1.77    <-- DIS
     632       5.44773431       5.44773248       3.358E-07      1.77    <-- DIS
     633       5.44773341       5.44773152       3.480E-07      1.77    <-- DIS
     634       5.44773249       5.44773052       3.607E-07      1.77    <-- DIS
     635       5.44773153       5.44772949       3.738E-07      1.78    <-- DIS
     636       5.44773053       5.44772842       3.874E-07      1.78    <-- DIS
     637       5.44772950       5.44772731       4.015E-07      1.78    <-- DIS
     638       5.44772844       5.44772617       4.161E-07      1.78    <-- DIS
     639       5.44772733       5.44772498       4.312E-07      1.79    <-- DIS
     640       5.44772619       5.44772376       4.469E-07      1.79    <-- DIS
     641       5.44772501       5.44772248       4.631E-07      1.79    <-- DIS
     642       5.44772378       5.44772117       4.800E-07      1.80    <-- DIS
     643       5.44772251       5.44771980       4.975E-07      1.80    <-- DIS
     644       5.44772120       5.44771839       5.156E-07      1.80    <-- DIS
     645       5.44771984       5.44771693       5.344E-07      1.80    <-- DIS
     646       5.44771843       5.44771542       5.538E-07      1.81    <-- DIS
     647       5.44771697       5.44771385       5.740E-07      1.81    <-- DIS
     648       5.44771546       5.44771222       5.949E-07      1.81    <-- DIS
     649       5.44771390       5.44771054       6.166E-07      1.82    <-- DIS
     650       5.44771228       5.44770880       6.391E-07      1.82    <-- DIS
     651       5.44771060       5.44770699       6.624E-07      1.82    <-- DIS
     652       5.44770886       5.44770512       6.866E-07      1.82    <-- DIS
     653       5.44770706       5.44770318       7.117E-07      1.83    <-- DIS
     654       5.44770519       5.44770117       7.377E-07      1.83    <-- DIS
     655       5.44770326       5.44769909       7.646E-07      1.83    <-- DIS
     656       5.44770126       5.44769694       7.925E-07      1.83    <-- DIS
     657       5.44769918       5.44769471       8.215E-07      1.84    <-- DIS
     658       5.44769703       5.44769240       8.515E-07      1.84    <-- DIS
     659       5.44769481       5.44769000       8.826E-07      1.84    <-- DIS
     660       5.44769250       5.44768752       9.149E-07      1.85    <-- DIS
     661       5.44769011       5.44768494       9.483E-07      1.85    <-- DIS
     662       5.44768763       5.44768228       9.830E-07      1.85    <-- DIS
     663       5.44768507       5.44767952       1.019E-06      1.85    <-- DIS
     664       5.44768241       5.44767665       1.056E-06      1.86    <-- DIS
     665       5.44767965       5.44767369       1.095E-06      1.86    <-- DIS
     666       5.44767680       5.44767061       1.135E-06      1.86    <-- DIS
     667       5.44767384       5.44766743       1.176E-06      1.86    <-- DIS
     668       5.44767077       5.44766413       1.220E-06      1.87    <-- DIS
     669       5.44766760       5.44766071       1.264E-06      1.87    <-- DIS
     670       5.44766430       5.44765716       1.311E-06      1.87    <-- DIS
     671       5.44766089       5.44765349       1.359E-06      1.88    <-- DIS
     672       5.44765735       5.44764968       1.408E-06      1.88    <-- DIS
     673       5.44765369       5.44764574       1.460E-06      1.88    <-- DIS
     674       5.44764989       5.44764165       1.513E-06      1.88    <-- DIS
     675       5.44764596       5.44763741       1.569E-06      1.89    <-- DIS
     676       5.44764188       5.44763302       1.627E-06      1.89    <-- DIS
     677       5.44763765       5.44762846       1.686E-06      1.89    <-- DIS
     678       5.44763327       5.44762374       1.748E-06      1.89    <-- DIS
     679       5.44762872       5.44761885       1.812E-06      1.90    <-- DIS
     680       5.44762402       5.44761378       1.879E-06      1.90    <-- DIS
     681       5.44761914       5.44760853       1.948E-06      1.90    <-- DIS
     682       5.44761408       5.44760308       2.019E-06      1.91    <-- DIS
     683       5.44760884       5.44759743       2.093E-06      1.91    <-- DIS
     684       5.44760340       5.44759158       2.170E-06      1.91    <-- DIS
     685       5.44759777       5.44758552       2.250E-06      1.91    <-- DIS
     686       5.44759193       5.44757923       2.333E-06      1.92    <-- DIS
     687       5.44758588       5.44757271       2.418E-06      1.92    <-- DIS
     688       5.44757961       5.44756595       2.507E-06      1.92    <-- DIS
     689       5.44757311       5.44755895       2.599E-06      1.92    <-- DIS
     690       5.44756637       5.44755169       2.695E-06      1.93    <-- DIS
     691       5.44755938       5.44754416       2.794E-06      1.93    <-- DIS
     692       5.44755214       5.44753636       2.897E-06      1.93    <-- DIS
     693       5.44754463       5.44752827       3.003E-06      1.94    <-- DIS
     694       5.44753685       5.44751988       3.114E-06      1.94    <-- DIS
     695       5.44752878       5.44751119       3.228E-06      1.94    <-- DIS
     696       5.44752041       5.44750218       3.347E-06      1.94    <-- DIS
     697       5.44751174       5.44749284       3.470E-06      1.95    <-- DIS
     698       5.44750275       5.44748315       3.598E-06      1.95    <-- DIS
     699       5.44749343       5.44747311       3.730E-06      1.95    <-- DIS
     700       5.44748377       5.44746271       3.867E-06      1.96    <-- DIS
     701       5.44747376       5.44745192       4.010E-06      1.96    <-- DIS
     702       5.44746337       5.44744073       4.157E-06      1.96    <-- DIS
     703       5.44745261       5.44742913       4.310E-06      1.96    <-- DIS
     704       5.44744145       5.44741711       4.469E-06      1.97    <-- DIS
     705       5.44742988       5.44740464       4.634E-06      1.97    <-- DIS
     706       5.44741789       5.44739172       4.804E-06      1.97    <-- DIS
     707       5.44740545       5.44737832       4.981E-06      1.97    <-- DIS
     708       5.44739256       5.44736442       5.165E-06      1.98    <-- DIS
     709       5.44737919       5.44735002       5.355E-06      1.98    <-- DIS
     710       5.44736534       5.44733509       5.552E-06      1.98    <-- DIS
     711       5.44735097       5.44731961       5.757E-06      1.99    <-- DIS
     712       5.44733607       5.44730356       5.969E-06      1.99    <-- DIS
     713       5.44732063       5.44728692       6.189E-06      1.99    <-- DIS
     714       5.44730462       5.44726966       6.417E-06      1.99    <-- DIS
     715       5.44728802       5.44725177       6.654E-06      2.00    <-- DIS
     716       5.44727081       5.44723323       6.899E-06      2.00    <-- DIS
     717       5.44725296       5.44721400       7.153E-06      2.00    <-- DIS
     718       5.44723446       5.44719406       7.417E-06      2.00    <-- DIS
     719       5.44721528       5.44717339       7.690E-06      2.01    <-- DIS
     720       5.44719539       5.44715195       7.974E-06      2.01    <-- DIS
     721       5.44717477       5.44712973       8.268E-06      2.01    <-- DIS
     722       5.44715339       5.44710669       8.573E-06      2.02    <-- DIS
     723       5.44713122       5.44708280       8.889E-06      2.02    <-- DIS
     724       5.44710824       5.44705803       9.217E-06      2.02    <-- DIS
     725       5.44708441       5.44703235       9.557E-06      2.02    <-- DIS
     726       5.44705970       5.44700572       9.909E-06      2.03    <-- DIS
     727       5.44703408       5.44697812       1.027E-05      2.03    <-- DIS
     728       5.44700752       5.44694949       1.065E-05      2.03    <-- DIS
     729       5.44697998       5.44691981       1.105E-05      2.03    <-- DIS
     730       5.44695142       5.44688904       1.145E-05      2.04    <-- DIS
     731       5.44692182       5.44685713       1.188E-05      2.04    <-- DIS
     732       5.44689112       5.44682404       1.231E-05      2.04    <-- DIS
     733       5.44685929       5.44678974       1.277E-05      2.05    <-- DIS
     734       5.44682629       5.44675417       1.324E-05      2.05    <-- DIS
     735       5.44679207       5.44671730       1.373E-05      2.05    <-- DIS
     736       5.44675659       5.44667906       1.423E-05      2.05    <-- DIS
     737       5.44671980       5.44663941       1.476E-05      2.06    <-- DIS
     738       5.44668166       5.44659831       1.530E-05      2.06    <-- DIS
     739       5.44664211       5.44655568       1.587E-05      2.06    <-- DIS
     740       5.44660111       5.44651149       1.645E-05      2.06    <-- DIS
     741       5.44655859       5.44646567       1.706E-05      2.07    <-- DIS
     742       5.44651451       5.44641816       1.769E-05      2.07    <-- DIS
     743       5.44646880       5.44636890       1.834E-05      2.07    <-- DIS
     744       5.44642140       5.44631782       1.902E-05      2.08    <-- DIS
     745       5.44637226       5.44626486       1.972E-05      2.08    <-- DIS
     746       5.44632131       5.44620995       2.045E-05      2.08    <-- DIS
     747       5.44626848       5.44615302       2.120E-05      2.08    <-- DIS
     748       5.44621371       5.44609399       2.198E-05      2.09    <-- DIS
     749       5.44615692       5.44603278       2.279E-05      2.09    <-- DIS
     750       5.44609803       5.44596932       2.363E-05      2.09    <-- DIS
     751       5.44603697       5.44590352       2.451E-05      2.09    <-- DIS
     752       5.44597367       5.44583530       2.541E-05      2.10    <-- DIS
     753       5.44590803       5.44576456       2.634E-05      2.10    <-- DIS
     754       5.44583998       5.44569122       2.732E-05      2.10    <-- DIS
     755       5.44576942       5.44561518       2.832E-05      2.11    <-- DIS
     756       5.44569626       5.44553634       2.937E-05      2.11    <-- DIS
     757       5.44562040       5.44545460       3.045E-05      2.11    <-- DIS
     758       5.44554176       5.44536985       3.157E-05      2.11    <-- DIS
     759       5.44546021       5.44528198       3.273E-05      2.12    <-- DIS
     760       5.44537567       5.44519088       3.394E-05      2.12    <-- DIS
     761       5.44528802       5.44509642       3.519E-05      2.12    <-- DIS
     762       5.44519713       5.44499849       3.648E-05      2.12    <-- DIS
[...]
 Delta: O_D=  0.2104263E-07 O_OD= -0.3762403E-07 O_TOT= -0.1658140E-07 <-- DLTA
 ------------------------------------------------------------------------------
 Cycle:   1052
  WF centre and spread    1  ( -0.710252,  0.490738, -0.956104 )     0.76529522
  WF centre and spread    2  (  0.713005,  0.491766,  0.946961 )     0.76641073
  WF centre and spread    3  (  0.712803, -0.484047, -0.955215 )     0.76714796
  WF centre and spread    4  ( -0.716673, -0.482882,  0.947835 )     0.76528288
  WF centre and spread    5  (  0.009145, -0.003898,  0.016611 )     0.38732383
  WF centre and spread    6  (  0.008760,  0.003518, -0.017030 )     0.38577954
  WF centre and spread    7  ( -0.009248, -0.001281,  0.017281 )     0.38672322
  WF centre and spread    8  (  0.000039, -0.000072,  0.000242 )     0.51408240
  WF centre and spread    9  ( -0.008605,  0.001469, -0.016822 )     0.38472792
  Sum of centres and spreads ( -0.001025,  0.015310, -0.016241 )     5.12277369

   1052    -0.179E-07     0.0000854739        5.1227734297      19.36  <-- CONV
        O_D=      0.0023671 O_OD=      0.3232830 O_TOT=      5.1227734 <-- SPRD
 Delta: O_D=  0.2214620E-07 O_OD= -0.4000509E-07 O_TOT= -0.1785888E-07 <-- DLTA
 ------------------------------------------------------------------------------
 Cycle:   1053
  WF centre and spread    1  ( -0.710252,  0.490738, -0.956103 )     0.76529303
  WF centre and spread    2  (  0.713006,  0.491764,  0.946961 )     0.76640993
  WF centre and spread    3  (  0.712806, -0.484044, -0.955215 )     0.76714782
  WF centre and spread    4  ( -0.716672, -0.482884,  0.947834 )     0.76528510
  WF centre and spread    5  (  0.009148, -0.003893,  0.016610 )     0.38733050
  WF centre and spread    6  (  0.008756,  0.003516, -0.017030 )     0.38578020
  WF centre and spread    7  ( -0.009252, -0.001278,  0.017282 )     0.38673131
  WF centre and spread    8  (  0.000036, -0.000074,  0.000241 )     0.51408316
  WF centre and spread    9  ( -0.008600,  0.001465, -0.016822 )     0.38471262
  Sum of centres and spreads ( -0.001024,  0.015310, -0.016241 )     5.12277368

   1053    -0.159E-07     0.0000849686        5.1227734137      19.36  <-- CONV
        O_D=      0.0023671 O_OD=      0.3232830 O_TOT=      5.1227734 <-- SPRD
 Delta: O_D=  0.1601252E-07 O_OD= -0.3192706E-07 O_TOT= -0.1591454E-07 <-- DLTA
 ------------------------------------------------------------------------------
 Cycle:   1054
  WF centre and spread    1  ( -0.710252,  0.490739, -0.956101 )     0.76529058
  WF centre and spread    2  (  0.713007,  0.491762,  0.946961 )     0.76640935
  WF centre and spread    3  (  0.712808, -0.484041, -0.955215 )     0.76714791
  WF centre and spread    4  ( -0.716671, -0.482886,  0.947833 )     0.76528707
  WF centre and spread    5  (  0.009150, -0.003889,  0.016610 )     0.38733633
  WF centre and spread    6  (  0.008753,  0.003514, -0.017030 )     0.38578113
  WF centre and spread    7  ( -0.009256, -0.001275,  0.017282 )     0.38673805
  WF centre and spread    8  (  0.000032, -0.000075,  0.000240 )     0.51408364
  WF centre and spread    9  ( -0.008597,  0.001461, -0.016821 )     0.38469962
  Sum of centres and spreads ( -0.001024,  0.015310, -0.016241 )     5.12277366

   1054    -0.134E-07     0.0000775131        5.1227734003      19.37  <-- CONV
        O_D=      0.0023671 O_OD=      0.3232830 O_TOT=      5.1227734 <-- SPRD
 Delta: O_D=  0.1222391E-07 O_OD= -0.2563812E-07 O_TOT= -0.1341421E-07 <-- DLTA
 ------------------------------------------------------------------------------
 Cycle:   1055
  WF centre and spread    1  ( -0.710252,  0.490741, -0.956100 )     0.76528799
  WF centre and spread    2  (  0.713009,  0.491760,  0.946961 )     0.76640898
  WF centre and spread    3  (  0.712811, -0.484039, -0.955215 )     0.76714816
  WF centre and spread    4  ( -0.716669, -0.482888,  0.947832 )     0.76528874
  WF centre and spread    5  (  0.009152, -0.003885,  0.016610 )     0.38734161
  WF centre and spread    6  (  0.008750,  0.003512, -0.017029 )     0.38578225
  WF centre and spread    7  ( -0.009259, -0.001273,  0.017283 )     0.38674399
  WF centre and spread    8  (  0.000028, -0.000076,  0.000239 )     0.51408394
  WF centre and spread    9  ( -0.008593,  0.001458, -0.016821 )     0.38468798
  Sum of centres and spreads ( -0.001024,  0.015310, -0.016241 )     5.12277365

   1055    -0.119E-07     0.0000731533        5.1227733884      19.37  <-- CONV
        O_D=      0.0023672 O_OD=      0.3232830 O_TOT=      5.1227734 <-- SPRD
 Delta: O_D=  0.1170633E-07 O_OD= -0.2363893E-07 O_TOT= -0.1193260E-07 <-- DLTA
 ------------------------------------------------------------------------------
 Cycle:   1056
  WF centre and spread    1  ( -0.710252,  0.490742, -0.956099 )     0.76528605
  WF centre and spread    2  (  0.713010,  0.491759,  0.946961 )     0.76640887
  WF centre and spread    3  (  0.712813, -0.484037, -0.955214 )     0.76714847
  WF centre and spread    4  ( -0.716668, -0.482890,  0.947831 )     0.76528972
  WF centre and spread    5  (  0.009153, -0.003882,  0.016609 )     0.38734523
  WF centre and spread    6  (  0.008748,  0.003510, -0.017029 )     0.38578320
  WF centre and spread    7  ( -0.009261, -0.001271,  0.017283 )     0.38674805
  WF centre and spread    8  (  0.000024, -0.000077,  0.000238 )     0.51408408
  WF centre and spread    9  ( -0.008591,  0.001455, -0.016821 )     0.38467998
  Sum of centres and spreads ( -0.001024,  0.015310, -0.016241 )     5.12277364

   1056    -0.818E-08     0.0000653281        5.1227733802      19.37  <-- CONV
        O_D=      0.0023672 O_OD=      0.3232829 O_TOT=      5.1227734 <-- SPRD
 Delta: O_D=  0.9764899E-08 O_OD= -0.1794079E-07 O_TOT= -0.8175889E-08 <-- DLTA
 ------------------------------------------------------------------------------
 Cycle:   1057
  WF centre and spread    1  ( -0.710251,  0.490743, -0.956099 )     0.76528492
  WF centre and spread    2  (  0.713011,  0.491758,  0.946961 )     0.76640890
  WF centre and spread    3  (  0.712815, -0.484035, -0.955214 )     0.76714879
  WF centre and spread    4  ( -0.716668, -0.482892,  0.947830 )     0.76529006
  WF centre and spread    5  (  0.009154, -0.003880,  0.016609 )     0.38734726
  WF centre and spread    6  (  0.008747,  0.003509, -0.017028 )     0.38578385
  WF centre and spread    7  ( -0.009262, -0.001270,  0.017284 )     0.38675038
  WF centre and spread    8  (  0.000022, -0.000077,  0.000238 )     0.51408412
  WF centre and spread    9  ( -0.008590,  0.001454, -0.016822 )     0.38467536
  Sum of centres and spreads ( -0.001024,  0.015310, -0.016241 )     5.12277364

   1057    -0.466E-08     0.0000502212        5.1227733756      19.38  <-- CONV
        O_D=      0.0023672 O_OD=      0.3232829 O_TOT=      5.1227734 <-- SPRD
 Delta: O_D=  0.8856934E-08 O_OD= -0.1351958E-07 O_TOT= -0.4662647E-08 <-- DLTA
 ------------------------------------------------------------------------------
 Cycle:   1058
  WF centre and spread    1  ( -0.710251,  0.490744, -0.956098 )     0.76528431
  WF centre and spread    2  (  0.713011,  0.491758,  0.946961 )     0.76640895
  WF centre and spread    3  (  0.712816, -0.484035, -0.955214 )     0.76714912
  WF centre and spread    4  ( -0.716667, -0.482893,  0.947830 )     0.76529003
  WF centre and spread    5  (  0.009155, -0.003879,  0.016609 )     0.38734840
  WF centre and spread    6  (  0.008746,  0.003509, -0.017028 )     0.38578429
  WF centre and spread    7  ( -0.009263, -0.001269,  0.017284 )     0.38675174
  WF centre and spread    8  (  0.000020, -0.000078,  0.000237 )     0.51408413
  WF centre and spread    9  ( -0.008589,  0.001453, -0.016822 )     0.38467266
  Sum of centres and spreads ( -0.001023,  0.015311, -0.016241 )     5.12277364

   1058    -0.270E-08     0.0000382300        5.1227733729      19.39  <-- CONV
        O_D=      0.0023672 O_OD=      0.3232829 O_TOT=      5.1227734 <-- SPRD
 Delta: O_D=  0.6662615E-08 O_OD= -0.9364303E-08 O_TOT= -0.2701688E-08 <-- DLTA
 ------------------------------------------------------------------------------
 Cycle:   1059
  WF centre and spread    1  ( -0.710251,  0.490744, -0.956098 )     0.76528410
  WF centre and spread    2  (  0.713011,  0.491758,  0.946961 )     0.76640898
  WF centre and spread    3  (  0.712816, -0.484034, -0.955214 )     0.76714945
  WF centre and spread    4  ( -0.716667, -0.482893,  0.947830 )     0.76528980
  WF centre and spread    5  (  0.009155, -0.003879,  0.016609 )     0.38734896
  WF centre and spread    6  (  0.008745,  0.003508, -0.017028 )     0.38578454
  WF centre and spread    7  ( -0.009263, -0.001269,  0.017284 )     0.38675247
  WF centre and spread    8  (  0.000019, -0.000078,  0.000237 )     0.51408413
  WF centre and spread    9  ( -0.008589,  0.001453, -0.016822 )     0.38467121
  Sum of centres and spreads ( -0.001023,  0.015311, -0.016241 )     5.12277364

   1059    -0.142E-08     0.0000284068        5.1227733714      19.39  <-- CONV
        O_D=      0.0023672 O_OD=      0.3232829 O_TOT=      5.1227734 <-- SPRD
 Delta: O_D=  0.4399328E-08 O_OD= -0.5817039E-08 O_TOT= -0.1417711E-08 <-- DLTA
 ------------------------------------------------------------------------------
 Cycle:   1060
  WF centre and spread    1  ( -0.710251,  0.490745, -0.956098 )     0.76528412
  WF centre and spread    2  (  0.713012,  0.491758,  0.946961 )     0.76640897
  WF centre and spread    3  (  0.712817, -0.484034, -0.955214 )     0.76714976
  WF centre and spread    4  ( -0.716667, -0.482894,  0.947830 )     0.76528949
  WF centre and spread    5  (  0.009155, -0.003878,  0.016609 )     0.38734921
  WF centre and spread    6  (  0.008745,  0.003508, -0.017028 )     0.38578466
  WF centre and spread    7  ( -0.009263, -0.001269,  0.017284 )     0.38675283
  WF centre and spread    8  (  0.000018, -0.000078,  0.000237 )     0.51408412
  WF centre and spread    9  ( -0.008588,  0.001453, -0.016822 )     0.38467047
  Sum of centres and spreads ( -0.001023,  0.015311, -0.016241 )     5.12277364

   1060    -0.691E-09     0.0000200287        5.1227733707      19.40  <-- CONV
        O_D=      0.0023672 O_OD=      0.3232829 O_TOT=      5.1227734 <-- SPRD
 Delta: O_D=  0.2792482E-08 O_OD= -0.3483910E-08 O_TOT= -0.6914291E-09 <-- DLTA
 ------------------------------------------------------------------------------
 Cycle:   1061
  WF centre and spread    1  ( -0.710251,  0.490745, -0.956098 )     0.76528425
  WF centre and spread    2  (  0.713012,  0.491758,  0.946961 )     0.76640893
  WF centre and spread    3  (  0.712817, -0.484034, -0.955214 )     0.76715003
  WF centre and spread    4  ( -0.716667, -0.482894,  0.947830 )     0.76528916
  WF centre and spread    5  (  0.009155, -0.003878,  0.016609 )     0.38734932
  WF centre and spread    6  (  0.008745,  0.003508, -0.017028 )     0.38578471
  WF centre and spread    7  ( -0.009264, -0.001269,  0.017284 )     0.38675300
  WF centre and spread    8  (  0.000017, -0.000078,  0.000237 )     0.51408411
  WF centre and spread    9  ( -0.008588,  0.001453, -0.016822 )     0.38467011
  Sum of centres and spreads ( -0.001023,  0.015311, -0.016241 )     5.12277363

   1061    -0.325E-09     0.0000138324        5.1227733704      19.40  <-- CONV
        O_D=      0.0023672 O_OD=      0.3232829 O_TOT=      5.1227734 <-- SPRD
 Delta: O_D=  0.1606839E-08 O_OD= -0.1932206E-08 O_TOT= -0.3253664E-09 <-- DLTA
 ------------------------------------------------------------------------------
 Cycle:   1062
  WF centre and spread    1  ( -0.710250,  0.490745, -0.956098 )     0.76528446
  WF centre and spread    2  (  0.713012,  0.491758,  0.946961 )     0.76640887
  WF centre and spread    3  (  0.712817, -0.484034, -0.955214 )     0.76715031
  WF centre and spread    4  ( -0.716667, -0.482894,  0.947830 )     0.76528880
  WF centre and spread    5  (  0.009155, -0.003878,  0.016609 )     0.38734937
  WF centre and spread    6  (  0.008745,  0.003508, -0.017028 )     0.38578473
  WF centre and spread    7  ( -0.009264, -0.001269,  0.017284 )     0.38675310
  WF centre and spread    8  (  0.000017, -0.000078,  0.000237 )     0.51408410
  WF centre and spread    9  ( -0.008588,  0.001453, -0.016822 )     0.38466990
  Sum of centres and spreads ( -0.001023,  0.015311, -0.016241 )     5.12277363

   1062    -0.180E-09     0.0000097656        5.1227733702      19.41  <-- CONV
        O_D=      0.0023672 O_OD=      0.3232829 O_TOT=      5.1227734 <-- SPRD
 Delta: O_D=  0.1298221E-08 O_OD= -0.1477860E-08 O_TOT= -0.1796403E-09 <-- DLTA
 ------------------------------------------------------------------------------
 Cycle:   1063
  WF centre and spread    1  ( -0.710250,  0.490745, -0.956098 )     0.76528469
  WF centre and spread    2  (  0.713012,  0.491758,  0.946961 )     0.76640880
  WF centre and spread    3  (  0.712817, -0.484034, -0.955214 )     0.76715057
  WF centre and spread    4  ( -0.716666, -0.482894,  0.947830 )     0.76528844
  WF centre and spread    5  (  0.009155, -0.003878,  0.016609 )     0.38734940
  WF centre and spread    6  (  0.008745,  0.003508, -0.017028 )     0.38578472
  WF centre and spread    7  ( -0.009264, -0.001269,  0.017284 )     0.38675316
  WF centre and spread    8  (  0.000016, -0.000078,  0.000237 )     0.51408410
  WF centre and spread    9  ( -0.008588,  0.001453, -0.016822 )     0.38466975
  Sum of centres and spreads ( -0.001023,  0.015311, -0.016241 )     5.12277363

   1063    -0.113E-09     0.0000076385        5.1227733701      19.41  <-- CONV
        O_D=      0.0023672 O_OD=      0.3232829 O_TOT=      5.1227734 <-- SPRD
 Delta: O_D=  0.1236280E-08 O_OD= -0.1348831E-08 O_TOT= -0.1125500E-09 <-- DLTA
 ------------------------------------------------------------------------------
 Cycle:   1064
  WF centre and spread    1  ( -0.710250,  0.490746, -0.956098 )     0.76528497
  WF centre and spread    2  (  0.713012,  0.491758,  0.946961 )     0.76640872
  WF centre and spread    3  (  0.712817, -0.484035, -0.955213 )     0.76715085
  WF centre and spread    4  ( -0.716666, -0.482894,  0.947830 )     0.76528806
  WF centre and spread    5  (  0.009155, -0.003878,  0.016609 )     0.38734941
  WF centre and spread    6  (  0.008745,  0.003508, -0.017028 )     0.38578470
  WF centre and spread    7  ( -0.009264, -0.001269,  0.017284 )     0.38675320
  WF centre and spread    8  (  0.000016, -0.000078,  0.000237 )     0.51408409
  WF centre and spread    9  ( -0.008588,  0.001453, -0.016822 )     0.38466964
  Sum of centres and spreads ( -0.001023,  0.015311, -0.016241 )     5.12277363

   1064    -0.754E-10     0.0000060328        5.1227733701      19.41  <-- CONV
        O_D=      0.0023672 O_OD=      0.3232829 O_TOT=      5.1227734 <-- SPRD
 Delta: O_D=  0.1470216E-08 O_OD= -0.1545592E-08 O_TOT= -0.7537526E-10 <-- DLTA
 ------------------------------------------------------------------------------
 Cycle:   1065
  WF centre and spread    1  ( -0.710250,  0.490746, -0.956098 )     0.76528525
  WF centre and spread    2  (  0.713012,  0.491758,  0.946961 )     0.76640863
  WF centre and spread    3  (  0.712817, -0.484035, -0.955213 )     0.76715110
  WF centre and spread    4  ( -0.716666, -0.482895,  0.947830 )     0.76528771
  WF centre and spread    5  (  0.009155, -0.003878,  0.016609 )     0.38734942
  WF centre and spread    6  (  0.008745,  0.003508, -0.017028 )     0.38578467
  WF centre and spread    7  ( -0.009264, -0.001269,  0.017284 )     0.38675322
  WF centre and spread    8  (  0.000016, -0.000078,  0.000237 )     0.51408409
  WF centre and spread    9  ( -0.008588,  0.001453, -0.016822 )     0.38466954
  Sum of centres and spreads ( -0.001023,  0.015311, -0.016241 )     5.12277363

   1065    -0.486E-10     0.0000048161        5.1227733700      19.42  <-- CONV
        O_D=      0.0023672 O_OD=      0.3232829 O_TOT=      5.1227734 <-- SPRD
 Delta: O_D=  0.1746796E-08 O_OD= -0.1795424E-08 O_TOT= -0.4862866E-10 <-- DLTA
 ------------------------------------------------------------------------------
 Cycle:   1066
  WF centre and spread    1  ( -0.710250,  0.490746, -0.956098 )     0.76528556
  WF centre and spread    2  (  0.713012,  0.491758,  0.946961 )     0.76640854
  WF centre and spread    3  (  0.712817, -0.484035, -0.955213 )     0.76715137
  WF centre and spread    4  ( -0.716666, -0.482895,  0.947830 )     0.76528733
  WF centre and spread    5  (  0.009155, -0.003878,  0.016609 )     0.38734942
  WF centre and spread    6  (  0.008745,  0.003508, -0.017028 )     0.38578463
  WF centre and spread    7  ( -0.009264, -0.001269,  0.017284 )     0.38675324
  WF centre and spread    8  (  0.000015, -0.000078,  0.000237 )     0.51408409
  WF centre and spread    9  ( -0.008588,  0.001453, -0.016822 )     0.38466945
  Sum of centres and spreads ( -0.001023,  0.015311, -0.016241 )     5.12277363

   1066    -0.477E-10     0.0000045349        5.1227733700      19.42  <-- CONV
        O_D=      0.0023672 O_OD=      0.3232829 O_TOT=      5.1227734 <-- SPRD
 Delta: O_D=  0.2347173E-08 O_OD= -0.2394858E-08 O_TOT= -0.4768363E-10 <-- DLTA
 ------------------------------------------------------------------------------

             <<<     Delta < 1.000E-10  over  3 iterations     >>>
             <<< Wannierisation convergence criteria satisfied >>>

 Final State
  WF centre and spread    1  ( -0.710250,  0.490746, -0.956098 )     0.76528556
  WF centre and spread    2  (  0.713012,  0.491758,  0.946961 )     0.76640854
  WF centre and spread    3  (  0.712817, -0.484035, -0.955213 )     0.76715137
  WF centre and spread    4  ( -0.716666, -0.482895,  0.947830 )     0.76528733
  WF centre and spread    5  (  0.009155, -0.003878,  0.016609 )     0.38734942
  WF centre and spread    6  (  0.008745,  0.003508, -0.017028 )     0.38578463
  WF centre and spread    7  ( -0.009264, -0.001269,  0.017284 )     0.38675324
  WF centre and spread    8  (  0.000015, -0.000078,  0.000237 )     0.51408409
  WF centre and spread    9  ( -0.008588,  0.001453, -0.016822 )     0.38466945
  Sum of centres and spreads ( -0.001023,  0.015311, -0.016241 )     5.12277363

         Spreads (Ang^2)       Omega I      =     4.797123273
        ================       Omega D      =     0.002367192
                               Omega OD     =     0.323282905
    Final Spread (Ang^2)       Omega Total  =     5.122773370
 ------------------------------------------------------------------------------
 Time for wannierise            5.132 (sec)

 Writing checkpoint file Fe_up.chk... done

 *---------------------------------------------------------------------------*
 |                               PLOTTING                                    |
 *---------------------------------------------------------------------------*


 Calculating interpolated band-structure

 Time to calculate interpolated band structure       0.486 (sec)

 Time for plotting              5.140 (sec)
 Total Execution Time          25.353 (sec)

 *===========================================================================*
 |                             TIMING INFORMATION                            |
 *===========================================================================*
 |    Tag                                                Ncalls      Time (s)|
 |---------------------------------------------------------------------------|
 |kmesh: get                                        :         1         0.158|
 |overlap: allocate                                 :         1         0.000|
 |overlap: read                                     :         1         0.560|
 |dis: main                                         :         1        14.315|
 |wann: main                                        :         1         5.132|
 |plot: main                                        :         1         5.140|
 *---------------------------------------------------------------------------*

 All done: wannier90 exiting
