 written on  4Aug2023 at 11:54:15 
   1.4349962953939324        1.4349962953939324        1.4349962953939324     
  -1.4349962953939324        1.4349962953939324        1.4349962953939324     
  -1.4349962953939324       -1.4349962953939324        1.4349962953939324     
           9
         259
    2    2    2    1    2    2    2    2    2    2    1    1    2    2    1
    1    1    1    2    2    1    1    1    1    2    2    1    1    2    2
    2    2    1    2    2    1    1    1    1    2    1    1    1    1    1
    1    2    1    1    1    1    1    2    1    1    1    1    1    1    2
    1    1    1    1    2    2    1    2    2    2    2    1    1    1    1
    2    2    1    1    1    1    1    2    1    1    1    1    1    1    1
    1    1    1    1    1    2    1    1    1    1    1    2    2    1    1
    1    1    2    2    2    2    1    1    2    1    1    1    1    1    1
    1    1    1    1    1    1    2    1    1    1    1    1    2    1    1
    1    1    1    1    1    1    1    1    1    1    2    1    1    2    2
    2    2    1    1    1    1    2    2    1    1    1    1    1    2    1
    1    1    1    1    1    1    1    1    1    1    1    2    1    1    1
    1    1    2    2    1    1    1    1    2    2    2    2    1    2    2
    1    1    1    1    2    1    1    1    1    1    1    2    1    1    1
    1    1    2    1    1    1    1    1    1    2    1    1    1    1    2
    2    1    2    2    2    2    1    1    2    2    1    1    1    1    2
    2    1    1    1    1    2    2    1    1    2    2    2    2    2    2
    1    2    2    2

   -4    1   -3
    1    1    0.19483845E-03 -0.58062665E-05 
    2    1   -0.37944166E-02  0.68277724E-04 
    3    1   -0.30954924E-02 -0.15949117E-02 
    4    1    0.56987634E-02  0.93287359E-03 
    5    1   -0.11766365E-02 -0.36522790E-05 
    6    1   -0.10976173E-02  0.69483178E-05 
    7    1   -0.34621663E-03 -0.10802525E-04 
    8    1    0.12910517E-02 -0.42153326E-04 
    9    1   -0.18797368E-02 -0.16275649E-04 
    1    2   -0.97881615E-03 -0.12684897E-04 
    2    2    0.64921389E-03 -0.13678592E-04 
    3    2    0.47379523E-02  0.25546471E-02 
    4    2   -0.95716421E-03 -0.18757514E-03 
    5    2    0.12724081E-02  0.24886688E-04 
    6    2   -0.16190658E-03 -0.26055962E-04 
    7    2    0.10374770E-02  0.23380616E-04 
    8    2    0.74121863E-03  0.13808275E-04 
    9    2    0.96524194E-03  0.11946561E-04 
    1    3    0.11755243E-03 -0.53105185E-04 
    2    3    0.14418883E-02 -0.80738850E-03 
    3    3    0.42709892E-03 -0.85458518E-05 
    4    3    0.48293773E-03 -0.17232351E-03 
    5    3    0.86234215E-03 -0.42850844E-03 
    6    3   -0.57452826E-03  0.26887614E-03 
    7    3    0.71836774E-03 -0.38406497E-03 
    8    3    0.13845544E-02 -0.75417111E-03 
    9    3   -0.84739633E-03  0.45305953E-03 
    1    4    0.27034415E-02 -0.44341724E-03 
    2    4   -0.14038783E-02  0.33757483E-03 
    3    4   -0.62736193E-02 -0.20405471E-02 
    4    4    0.61040659E-03 -0.87957463E-05 
    5    4    0.34214281E-03 -0.52393327E-04 
    6    4   -0.14584954E-02  0.24326176E-03 
    7    4   -0.10263474E-02  0.14883822E-03 
    8    4   -0.77488927E-03  0.13546482E-03 
    9    4   -0.92375354E-03  0.15142848E-03 
    1    5    0.34551639E-03 -0.37374617E-05 
    2    5    0.31268272E-02 -0.49764937E-04 
    3    5    0.10559949E-02  0.55787281E-03 
    4    5    0.49646940E-03  0.76736683E-04 
    5    5   -0.29400890E-03  0.30067678E-05 
    6    5    0.32837621E-03 -0.71054517E-05 
    7    5   -0.31096710E-03  0.42825679E-06 
    8    5   -0.19183721E-03  0.63455848E-05 
    9    5    0.98840148E-03  0.21450525E-05 
    1    6   -0.51778103E-04 -0.52404919E-05 
    2    6   -0.11076566E-03  0.57499550E-05 
    3    6    0.48806419E-03  0.25685538E-03 
    4    6   -0.31144686E-02 -0.49349537E-03 
    5    6    0.36259215E-03  0.18103235E-05 
    6    6   -0.27445301E-03 -0.72036645E-06 
    7    6    0.10380873E-02  0.29336561E-05 
    8    6   -0.25405126E-03  0.11233406E-04 
    9    6   -0.19619113E-03  0.45228023E-05 
    1    7   -0.18251634E-02  0.19768505E-04 
    2    7    0.12798284E-02 -0.41170380E-04 
    3    7    0.20551311E-02  0.10630983E-02 
    4    7   -0.33115191E-03 -0.58529954E-04 
    5    7   -0.66201162E-03  0.86499341E-05 
    6    7    0.14274950E-02 -0.43980962E-05 
    7    7   -0.19683384E-03  0.35751167E-05 
    8    7   -0.37583799E-04  0.37469331E-05 
    9    7    0.29895672E-03 -0.12214930E-05 
    1    8    0.31705274E-03  0.17785728E-04 
    2    8    0.15250993E-02 -0.49281340E-05 
    3    8   -0.67958750E-03 -0.39568178E-03 
    4    8   -0.14765903E-02 -0.27017490E-03 
    5    8    0.38393256E-04 -0.22690296E-05 
    6    8    0.30980530E-04 -0.39145848E-05 
    7    8    0.24510468E-03  0.43083436E-05 
    8    8   -0.39088201E-03  0.18732618E-05 
    9    8    0.25402231E-03  0.91802400E-06 
    1    9    0.27009848E-03  0.13956817E-04 
    2    9    0.35759572E-03  0.24252611E-05 
    3    9    0.88466108E-03  0.45472835E-03 
    4    9   -0.75670078E-03 -0.10369745E-03 
    5    9    0.13863073E-02 -0.23262883E-05 
    6    9   -0.54108620E-03 -0.92772374E-05 
    7    9    0.30786981E-03 -0.67280964E-05 
    8    9   -0.91074881E-06  0.52231565E-05 
    9    9   -0.14162423E-03  0.18947118E-05 

   -4    1   -2
    1    1    0.69506434E-02 -0.55621141E-05 
    2    1    0.50761927E-03  0.40675794E-04 
    3    1   -0.54837512E-02 -0.28707066E-02 
    4    1   -0.22943424E-02 -0.39030541E-03 
    5    1    0.69862657E-03  0.55797321E-05 
    6    1   -0.38251648E-02 -0.21852817E-04 
    7    1   -0.11163384E-02 -0.30892680E-04 
    8    1   -0.41438669E-03 -0.31765950E-05 
    9    1   -0.15364714E-02 -0.15816736E-04 
    1    2   -0.10337054E-02  0.15522517E-04 
    2    2    0.32393585E-02 -0.28224851E-04 
    3    2    0.45301123E-03  0.23978481E-03 
    4    2    0.51096554E-03  0.77668911E-04 
    5    2    0.18979596E-02  0.34332610E-04 
    6    2   -0.16368047E-03 -0.34406187E-04 
    7    2   -0.29967653E-03 -0.69065338E-05 
    8    2    0.27254861E-03  0.10574125E-04 
    9    2    0.22330582E-03  0.11965734E-04 
    1    3   -0.25803611E-02  0.14247198E-02 
    2    3    0.19660642E-02 -0.11437257E-02 
    3    3    0.83191217E-03 -0.24019019E-05 
    4    3    0.64373573E-03 -0.18937759E-03 
    5    3    0.18834018E-02 -0.97191650E-03 
    6    3   -0.78906475E-03  0.37341953E-03 
    7    3    0.24920830E-03 -0.15467073E-03 
    8    3   -0.93999745E-03  0.54306887E-03 
    9    3   -0.65293573E-03  0.35299279E-03 
    1    4    0.99875252E-03 -0.93893574E-04 
    2    4    0.42247609E-03 -0.34640329E-04 
    3    4   -0.17902476E-02 -0.56752460E-03 
    4    4    0.49938748E-02  0.28927117E-04 
    5    4   -0.16317455E-02  0.27776414E-03 
    6    4   -0.19773080E-03  0.22041162E-04 
    7    4    0.41131548E-03 -0.91674515E-04 
    8    4    0.52505245E-03 -0.93172744E-04 
    9    4   -0.79707500E-04  0.23089038E-04 
    1    5    0.20239036E-02  0.57565402E-05 
    2    5    0.15496939E-02 -0.32504418E-04 
    3    5    0.10024494E-02  0.51748186E-03 
    4    5   -0.78649174E-03 -0.12671088E-03 
    5    5    0.10950937E-03  0.49393346E-05 
    6    5    0.28317750E-03 -0.11743389E-04 
    7    5   -0.20056729E-03  0.20976190E-05 
    8    5   -0.17914930E-03  0.59059947E-05 
    9    5    0.87033027E-03  0.37436067E-05 
    1    6   -0.37245370E-02  0.19864556E-04 
    2    6   -0.20090547E-03  0.10697882E-04 
    3    6    0.20691944E-02  0.10900360E-02 
    4    6    0.91393241E-03  0.14687313E-03 
    5    6    0.59685762E-03 -0.42003634E-05 
    6    6    0.12667485E-02  0.31972577E-05 
    7    6   -0.42258907E-03  0.46703847E-05 
    8    6   -0.26621041E-03  0.98940026E-05 
    9    6   -0.13090694E-03  0.45580159E-05 
    1    7   -0.20763278E-02  0.11337030E-04 
    2    7    0.35881186E-03 -0.46907147E-05 
    3    7   -0.16991631E-03 -0.88494919E-04 
    4    7   -0.10432662E-02 -0.18097462E-03 
    5    7    0.23347503E-03  0.26965329E-05 
    6    7    0.34459581E-03  0.77024023E-06 
    7    7    0.50114876E-03  0.90884679E-05 
    8    7   -0.46603791E-03  0.11472765E-04 
    9    7    0.48074700E-03 -0.16546123E-05 
    1    8    0.87994868E-03  0.25177290E-04 
    2    8   -0.56070556E-03  0.17844402E-04 
    3    8    0.10755269E-02  0.57807524E-03 
    4    8    0.16839330E-02  0.31997238E-03 
    5    8   -0.37823168E-03 -0.23773734E-05 
    6    8   -0.12292639E-03 -0.74390446E-05 
    7    8   -0.61474786E-03 -0.19904425E-04 
    8    8   -0.50614310E-04  0.10438512E-05 
    9    8    0.72441368E-03  0.14746646E-04 
    1    9    0.84826976E-04  0.17337574E-04 
    2    9    0.53981887E-03 -0.39000795E-05 
    3    9    0.96306523E-03  0.50935003E-03 
    4    9    0.47094011E-03  0.97341408E-04 
    5    9    0.51304310E-03  0.59845360E-05 
    6    9   -0.23515991E-03 -0.13443186E-04 
    7    9   -0.49893819E-03 -0.86086864E-05 
    8    9    0.70254942E-03 -0.12924819E-04 
    9    9    0.99674848E-05  0.87531878E-05 

   -4    2   -3
    1    1    0.50299282E-02  0.16557743E-04 
    2    1   -0.36842811E-02  0.80424908E-04 
    3    1   -0.46911284E-02 -0.24242123E-02 
    4    1    0.19580831E-02  0.32500170E-03 
    5    1    0.13871049E-02  0.10510818E-04 
    6    1   -0.18039829E-02  0.15139991E-05 
    7    1    0.11731627E-02  0.30056953E-05 
    8    1    0.31965551E-03 -0.27310756E-04 
    9    1   -0.47281694E-03 -0.60796274E-06 
    1    2   -0.15670018E-02 -0.56252084E-05 
    2    2    0.91300511E-03 -0.16284798E-04 
    3    2    0.16875112E-02  0.93066362E-03 
    4    2    0.98474010E-03  0.17447471E-03 
    5    2    0.98601080E-03  0.34791253E-04 
    6    2   -0.37617780E-03 -0.32713900E-04 
    7    2   -0.16435627E-03 -0.80565277E-05 
    8    2    0.13001381E-03 -0.12473417E-04 
    9    2   -0.40162699E-03 -0.41069581E-05 
    1    3    0.36129993E-02 -0.19267259E-02 
    2    3   -0.89067981E-03  0.49296020E-03 
    3    3    0.31928048E-02  0.22994652E-05 
    4    3   -0.57686855E-02  0.19297366E-02 
    5    3    0.22617584E-02 -0.11725543E-02 
    6    3   -0.17916429E-02  0.90169468E-03 
    7    3   -0.30637824E-03  0.13041618E-03 
    8    3    0.14980692E-02 -0.83182869E-03 
    9    3   -0.34440724E-03  0.19356392E-03 
    1    4   -0.66421849E-03  0.12108596E-03 
    2    4   -0.57093720E-02  0.10644260E-02 
    3    4   -0.10716906E-01 -0.34782054E-02 
    4    4    0.74644832E-02  0.94165137E-05 
    5    4   -0.15637866E-02  0.24887885E-03 
    6    4   -0.19820656E-02  0.33007539E-03 
    7    4   -0.87671730E-03  0.11130893E-03 
    8    4    0.15973954E-02 -0.31052957E-03 
    9    4   -0.73222846E-04  0.91979487E-05 
    1    5    0.12969797E-03  0.13689393E-04 
    2    5    0.20511776E-02 -0.44062176E-04 
    3    5    0.98239695E-03  0.51679802E-03 
    4    5   -0.71506051E-03 -0.10303028E-03 
    5    5    0.39574507E-04  0.47342510E-05 
    6    5    0.39153494E-03 -0.11278959E-04 
    7    5   -0.14358914E-03 -0.37189851E-05 
    8    5   -0.70473333E-03  0.11498686E-04 
    9    5    0.84038830E-03  0.13383084E-05 
    1    6   -0.10913458E-02 -0.22416646E-06 
    2    6    0.94980056E-03 -0.12810249E-04 
    3    6    0.23316119E-02  0.12158756E-02 
    4    6   -0.24749898E-03 -0.33193762E-04 
    5    6   -0.46166406E-03  0.56421086E-05 
    6    6    0.49306270E-03 -0.14053187E-05 
    7    6   -0.45264143E-03 -0.64342344E-06 
    8    6    0.52227223E-03 -0.88477167E-05 
    9    6   -0.25722568E-03  0.65537078E-05 
    1    7    0.67843889E-03 -0.12497143E-04 
    2    7    0.33536101E-03 -0.12676213E-04 
    3    7    0.17259220E-02  0.89369924E-03 
    4    7   -0.33619100E-02 -0.55184606E-03 
    5    7   -0.29126692E-03  0.12205474E-04 
    6    7    0.34730188E-03 -0.24139866E-05 
    7    7    0.12755537E-02  0.93829974E-05 
    8    7    0.11489734E-03  0.10352400E-05 
    9    7    0.24548833E-03  0.73725824E-06 
    1    8    0.20820769E-04  0.44937389E-05 
    2    8    0.69531719E-04 -0.15200453E-04 
    3    8    0.34630449E-03  0.16350505E-03 
    4    8    0.31458234E-03  0.47025171E-04 
    5    8   -0.73084047E-03 -0.20730021E-04 
    6    8    0.40702396E-03  0.11282306E-04 
    7    8    0.21637466E-03  0.53261228E-05 
    8    8   -0.48863333E-04  0.96229295E-06 
    9    8    0.19431827E-03 -0.28838307E-05 
    1    9   -0.16986144E-02  0.19507420E-04 
    2    9   -0.50954174E-04  0.11314865E-04 
    3    9   -0.13147896E-02 -0.66749751E-03 
    4    9    0.96362891E-03  0.17734631E-03 
    5    9    0.47029372E-03  0.37987355E-05 
    6    9    0.14987754E-03 -0.67808320E-05 
    7    9    0.52489118E-03 -0.56140548E-05 
    8    9    0.39621666E-03 -0.13742894E-04 
    9    9    0.19593668E-03  0.41067537E-05 

   -4    2   -2
    1    1    0.33423025E-02  0.30253716E-04 
    2    1    0.61028639E-02  0.11475504E-04 
    3    1   -0.21353688E-02 -0.10842663E-02 
    4    1    0.63037771E-02  0.10855948E-02 
    5    1   -0.99501315E-03 -0.39441493E-05 
    6    1   -0.15852267E-02 -0.24347046E-05 
    7    1   -0.82818270E-03 -0.32131443E-04 
    8    1    0.19791854E-02 -0.39345734E-04 
    9    1    0.58541893E-03  0.18348773E-04 
    1    2   -0.32627528E-02 -0.47665902E-04 
    2    2    0.10483564E-02 -0.23220328E-04 
    3    2   -0.26686239E-02 -0.14624158E-02 
    4    2   -0.10137163E-02 -0.17402131E-03 
    5    2    0.19661641E-02  0.26976673E-04 
    6    2    0.10753340E-02 -0.19254240E-05 
    7    2    0.16709653E-02  0.29872281E-04 
    8    2    0.77697829E-03 -0.13357451E-04 
    9    2   -0.46801375E-03 -0.42778563E-05 
    1    3    0.37130817E-02 -0.19891470E-02 
    2    3    0.21740999E-02 -0.12088633E-02 
    3    3    0.12334356E-02 -0.18864234E-04 
    4    3   -0.54545194E-02  0.17989536E-02 
    5    3    0.14893808E-02 -0.77575174E-03 
    6    3    0.27649825E-03 -0.15383546E-03 
    7    3    0.27061768E-02 -0.14182289E-02 
    8    3    0.15330368E-02 -0.82998076E-03 
    9    3   -0.59665040E-04  0.40236114E-04 
    1    4    0.64215674E-02 -0.10461782E-02 
    2    4    0.33365358E-02 -0.56631119E-03 
    3    4   -0.72544862E-02 -0.23775543E-02 
    4    4    0.37414689E-02  0.29458807E-04 
    5    4   -0.16854311E-03  0.13994218E-04 
    6    4   -0.21332945E-02  0.33932010E-03 
    7    4   -0.22803577E-03 -0.30193734E-06 
    8    4   -0.14878544E-02  0.27851792E-03 
    9    4    0.36258943E-03 -0.64490455E-04 
    1    5    0.85334379E-03  0.25952543E-05 
    2    5    0.78276045E-03 -0.29363196E-04 
    3    5    0.35271393E-02  0.18124351E-02 
    4    5    0.40354964E-03  0.80942113E-04 
    5    5   -0.32728842E-03 -0.25353068E-05 
    6    5    0.11739045E-05 -0.10657219E-04 
    7    5   -0.84898388E-03 -0.10487888E-04 
    8    5    0.21564011E-03 -0.65534372E-05 
    9    5    0.30400711E-03 -0.33035437E-06 
    1    6   -0.23004887E-02  0.51121914E-05 
    2    6   -0.14929321E-02  0.92644370E-05 
    3    6    0.62647167E-03  0.32281756E-03 
    4    6   -0.33730397E-02 -0.54461146E-03 
    5    6    0.91331179E-03 -0.21244116E-05 
    6    6    0.11100161E-02  0.12817120E-05 
    7    6    0.17266208E-02  0.12695045E-04 
    8    6   -0.58725898E-04  0.24204156E-05 
    9    6   -0.61867308E-03  0.31615975E-05 
    1    7   -0.41111395E-02  0.34783126E-04 
    2    7    0.64352347E-03 -0.37707048E-05 
    3    7    0.58727931E-02  0.30403672E-02 
    4    7   -0.32099853E-02 -0.51248940E-03 
    5    7   -0.68195109E-03  0.12227109E-04 
    6    7    0.26326682E-02 -0.34804920E-05 
    7    7    0.12262056E-02  0.10202488E-04 
    8    7    0.56007705E-04 -0.28015722E-05 
    9    7    0.23953177E-04  0.36709080E-05 
    1    8   -0.61021949E-03 -0.13449618E-05 
    2    8    0.29689365E-03  0.13485191E-04 
    3    8    0.40637420E-03  0.20039729E-03 
    4    8    0.67382453E-03  0.12783492E-03 
    5    8   -0.10590641E-03 -0.35479095E-05 
    6    8   -0.47284440E-04 -0.28466706E-05 
    7    8    0.60433780E-04 -0.31797681E-05 
    8    8   -0.53078076E-03 -0.89829786E-06 
    9    8   -0.24909815E-03 -0.56714012E-05 
    1    9    0.70155361E-03 -0.49933698E-05 
    2    9    0.17104940E-02 -0.25685065E-04 
    3    9   -0.24408756E-02 -0.12659387E-02 
    4    9   -0.13793271E-02 -0.20934046E-03 
    5    9    0.99609404E-03 -0.30643908E-05 
    6    9   -0.55803555E-03 -0.50648405E-05 
    7    9    0.94505617E-03 -0.20499681E-05 
    8    9    0.21560378E-03 -0.50026340E-05 
    9    9   -0.26355819E-03  0.81267807E-05 

   -4    2   -1
    1    1    0.78009735E-02 -0.50271126E-05 
    2    1    0.15298894E-02 -0.13190283E-04 
    3    1    0.56242477E-02  0.31021308E-02 
    4    1   -0.10334960E-02 -0.15813134E-03 
    5    1    0.56729734E-03 -0.93217295E-05 
    6    1   -0.16432580E-02  0.38408913E-05 
    7    1   -0.75757353E-03 -0.24717848E-04 
    8    1   -0.16603557E-02  0.24500000E-04 
    9    1    0.18056448E-02  0.15704972E-04 
    1    2    0.11076146E-02 -0.17141011E-04 
    2    2    0.16997535E-02  0.36918911E-05 
    3    2   -0.12521925E-01 -0.68414614E-02 
    4    2    0.22652050E-02  0.39562244E-03 
    5    2    0.14811751E-02  0.16198650E-04 
    6    2   -0.24649491E-02 -0.64371774E-04 
    7    2    0.89019778E-04 -0.20218548E-04 
    8    2    0.10244863E-02  0.26735619E-05 
    9    2    0.10570059E-02  0.19681576E-04 
    1    3    0.21664410E-02 -0.11823529E-02 
    2    3    0.16012678E-02 -0.93026101E-03 
    3    3    0.27946682E-02 -0.12435451E-04 
    4    3    0.12420792E-02 -0.42390422E-03 
    5    3    0.21702896E-02 -0.11542645E-02 
    6    3   -0.15590447E-02  0.81040814E-03 
    7    3    0.17547246E-02 -0.94191699E-03 
    8    3    0.12640630E-03 -0.33962159E-04 
    9    3    0.13564694E-02 -0.70522125E-03 
    1    4    0.15822202E-02 -0.23945857E-03 
    2    4   -0.14811613E-03  0.37808480E-04 
    3    4    0.18719606E-02  0.63869162E-03 
    4    4    0.51930350E-02  0.33449201E-04 
    5    4   -0.21474083E-02  0.32967380E-03 
    6    4    0.64951302E-03 -0.11364343E-03 
    7    4   -0.14194301E-02  0.19800643E-03 
    8    4   -0.53857720E-03  0.97987083E-04 
    9    4    0.56049296E-03 -0.98765223E-04 
    1    5    0.21961945E-02 -0.14357442E-05 
    2    5    0.13970153E-02 -0.31634247E-04 
    3    5    0.35472412E-02  0.18390288E-02 
    4    5   -0.18316325E-03 -0.23788145E-04 
    5    5    0.99206279E-03 -0.23034575E-05 
    6    5   -0.29376879E-03 -0.93650419E-05 
    7    5   -0.67605239E-03 -0.13314687E-04 
    8    5   -0.16588485E-03  0.66106602E-05 
    9    5    0.17855496E-03 -0.27231859E-05 
    1    6   -0.25213587E-02  0.52896327E-05 
    2    6   -0.12992029E-02  0.24434993E-04 
    3    6   -0.57901183E-02 -0.30317164E-02 
    4    6    0.11170242E-02  0.15834918E-03 
    5    6    0.45900716E-03  0.41974098E-05 
    6    6   -0.31603378E-03  0.16228934E-05 
    7    6    0.83610743E-03  0.14146890E-04 
    8    6    0.33539301E-03 -0.42150091E-05 
    9    6    0.14602461E-03  0.66841599E-06 
    1    7   -0.13672619E-02  0.10292307E-04 
    2    7    0.19911965E-02 -0.30605020E-04 
    3    7    0.40422631E-03  0.24187381E-03 
    4    7   -0.10697576E-02 -0.18898991E-03 
    5    7    0.14711853E-03  0.95420779E-05 
    6    7    0.80441746E-03  0.11773118E-05 
    7    7    0.35237003E-03  0.90233152E-05 
    8    7   -0.83894029E-03  0.20916126E-04 
    9    7    0.46658150E-03  0.21841902E-05 
    1    8    0.40358228E-04  0.12465469E-04 
    2    8   -0.94788086E-04  0.21088347E-04 
    3    8    0.64732942E-03  0.36785272E-03 
    4    8    0.58455494E-04  0.23139189E-04 
    5    8   -0.80405792E-04  0.21073609E-05 
    6    8    0.92485785E-04 -0.76101031E-06 
    7    8   -0.88162920E-03 -0.25917289E-04 
    8    8   -0.97690492E-04  0.37897198E-06 
    9    8   -0.76270107E-04  0.28418893E-05 
    1    9   -0.18211945E-02  0.41472872E-05 
    2    9   -0.10664420E-03 -0.20187883E-04 
    3    9   -0.14391646E-02 -0.75953035E-03 
    4    9    0.81606748E-03  0.12974915E-03 
    5    9   -0.22718582E-03 -0.64065583E-05 
    6    9    0.34588277E-03 -0.46610267E-06 
    7    9    0.37668760E-04 -0.21856754E-05 
    8    9    0.98653021E-04  0.15774859E-05 
    9    9    0.74974360E-03  0.20569712E-06 

   -4    3   -2
    1    1    0.51755721E-02  0.21871302E-04 
    2    1    0.15174786E-02  0.18789061E-05 
    3    1    0.17989646E-02  0.10559518E-02 
    4    1    0.12320769E-02  0.20713201E-03 
    5    1    0.15029702E-03  0.10896423E-05 
    6    1   -0.48971411E-03  0.13870116E-04 
    7    1    0.13081808E-02  0.10715073E-04 
    8    1   -0.21365021E-03 -0.10292544E-04 
    9    1    0.83218870E-03  0.23632199E-04 
    1    2   -0.63478517E-03 -0.38780020E-04 
    2    2    0.27012531E-02  0.15606023E-04 
    3    2   -0.15615253E-03 -0.14432697E-03 
    4    2   -0.48657636E-02 -0.79534888E-03 
    5    2    0.21770996E-02  0.94504951E-05 
    6    2    0.15702523E-03 -0.20094956E-04 
    7    2    0.23612432E-02  0.25448954E-04 
    8    2    0.12660511E-02 -0.25727350E-04 
    9    2    0.13239481E-02  0.23885007E-04 
    1    3   -0.32836346E-03  0.11390593E-03 
    2    3   -0.21816938E-02  0.11401089E-02 
    3    3    0.20548166E-02 -0.38334447E-05 
    4    3   -0.75122182E-03  0.23328525E-03 
    5    3    0.35328668E-03 -0.21722617E-03 
    6    3   -0.83163332E-03  0.43344415E-03 
    7    3    0.11369049E-02 -0.61893014E-03 
    8    3    0.14485068E-02 -0.79461036E-03 
    9    3   -0.38656174E-03  0.20146569E-03 
    1    4   -0.26463729E-02  0.48043250E-03 
    2    4    0.34520184E-02 -0.57930466E-03 
    3    4   -0.15356910E-01 -0.50182593E-02 
    4    4    0.82761907E-02  0.24864162E-04 
    5    4   -0.60735356E-03  0.74460801E-04 
    6    4   -0.14971494E-02  0.23567407E-03 
    7    4   -0.38409081E-02  0.57687818E-03 
    8    4    0.34525061E-03 -0.75620716E-04 
    9    4    0.16731794E-02 -0.26210410E-03 
    1    5    0.96061630E-03  0.47935316E-05 
    2    5    0.16498403E-02 -0.37502881E-04 
    3    5    0.46407996E-02  0.23994573E-02 
    4    5   -0.15296998E-02 -0.22906897E-03 
    5    5    0.68715983E-03 -0.41635296E-05 
    6    5    0.37304053E-03 -0.74389575E-05 
    7    5    0.13864185E-03 -0.79080143E-05 
    8    5    0.98185909E-04 -0.53947813E-05 
    9    5    0.22846445E-03 -0.54952175E-05 
    1    6   -0.46867239E-03 -0.21571733E-04 
    2    6   -0.17420072E-02  0.19523323E-04 
    3    6    0.26573295E-02  0.13603739E-02 
    4    6   -0.19133182E-02 -0.30683533E-03 
    5    6    0.10646890E-03 -0.16931757E-05 
    6    6    0.28993158E-03  0.12114604E-05 
    7    6    0.87729393E-03  0.10866575E-04 
    8    6    0.80511622E-03 -0.15826634E-04 
    9    6   -0.62614997E-03  0.21998415E-06 
    1    7    0.58107757E-03 -0.18822193E-04 
    2    7    0.14996009E-02 -0.19075622E-04 
    3    7    0.13254993E-02  0.67621031E-03 
    4    7   -0.41134800E-02 -0.65513747E-03 
    5    7    0.43960183E-03  0.61036638E-05 
    6    7    0.83943032E-03 -0.32042651E-05 
    7    7   -0.16366151E-03  0.28113877E-05 
    8    7   -0.79433665E-04  0.41907332E-05 
    9    7   -0.36080268E-03  0.69182554E-05 
    1    8   -0.16545806E-02 -0.31591043E-04 
    2    8    0.12868246E-02  0.61038188E-05 
    3    8   -0.92907542E-03 -0.53102320E-03 
    4    8   -0.74097873E-03 -0.15604202E-03 
    5    8   -0.13116181E-03 -0.47070931E-05 
    6    8    0.89120918E-03  0.24999657E-04 
    7    8   -0.28231729E-03 -0.54917824E-05 
    8    8   -0.46232064E-04  0.10199678E-07 
    9    8    0.20031681E-03  0.85940588E-06 
    1    9   -0.12548672E-02  0.47448198E-05 
    2    9    0.10178933E-02 -0.39563195E-04 
    3    9   -0.20348597E-02 -0.10737424E-02 
    4    9    0.74497483E-04  0.35834726E-04 
    5    9   -0.23177238E-03 -0.11985279E-04 
    6    9    0.70243646E-04 -0.71183825E-05 
    7    9    0.42727443E-03 -0.68694103E-05 
    8    9    0.17516285E-03 -0.77354875E-05 
    9    9    0.10467353E-02 -0.18653470E-05 

   -4    3   -1
    1    1   -0.48432091E-03 -0.16435417E-05 
    2    1    0.11664436E-02 -0.37651985E-04 
    3    1    0.14012834E-02  0.83979004E-03 
    4    1    0.31935813E-02  0.52914921E-03 
    5    1    0.45289663E-03 -0.19182733E-04 
    6    1   -0.27072790E-03  0.16518862E-04 
    7    1   -0.16238790E-02 -0.22148962E-04 
    8    1    0.77479640E-03 -0.13457822E-04 
    9    1    0.92609201E-03  0.19902863E-04 
    1    2   -0.99161842E-03 -0.37481046E-04 
    2    2   -0.13651349E-03  0.92106143E-05 
    3    2   -0.28196654E-02 -0.15455763E-02 
    4    2    0.12367692E-02  0.21944984E-03 
    5    2    0.76366292E-03 -0.10768974E-04 
    6    2   -0.42826210E-03 -0.17828198E-04 
    7    2    0.14099663E-02 -0.65085219E-05 
    8    2    0.25750183E-04 -0.30922222E-05 
    9    2    0.71854634E-03  0.18308217E-04 
    1    3   -0.66224283E-03  0.29047101E-03 
    2    3    0.30261161E-02 -0.17348034E-02 
    3    3    0.39899956E-04  0.48463783E-05 
    4    3   -0.27012956E-02  0.86265362E-03 
    5    3    0.32479326E-02 -0.17331137E-02 
    6    3   -0.13238499E-02  0.69593095E-03 
    7    3    0.69629144E-03 -0.40016468E-03 
    8    3    0.38339825E-03 -0.19872345E-03 
    9    3    0.14473525E-02 -0.73533257E-03 
    1    4    0.47103896E-02 -0.75168239E-03 
    2    4    0.85923262E-02 -0.14845715E-02 
    3    4    0.36136771E-02  0.13154139E-02 
    4    4   -0.16594484E-03  0.38884854E-05 
    5    4    0.88832592E-03 -0.15290403E-03 
    6    4    0.14753994E-03 -0.16914524E-04 
    7    4   -0.85772605E-03  0.11092690E-03 
    8    4   -0.12188861E-02  0.21511067E-03 
    9    4    0.18388775E-02 -0.28586975E-03 
    1    5   -0.12858007E-02  0.68578714E-05 
    2    5    0.11200549E-03 -0.38674955E-05 
    3    5    0.12605742E-03  0.40044095E-04 
    4    5    0.58056295E-03  0.10962950E-03 
    5    5   -0.44727046E-03 -0.55118837E-05 
    6    5    0.27016645E-03 -0.26288325E-05 
    7    5   -0.35994415E-03 -0.12297168E-04 
    8    5   -0.31378750E-04  0.22581073E-05 
    9    5    0.74406011E-03  0.41914067E-05 
    1    6   -0.84630210E-03 -0.68737327E-05 
    2    6   -0.91831498E-03  0.22088325E-04 
    3    6   -0.10068889E-02 -0.56046291E-03 
    4    6   -0.89589210E-03 -0.15483925E-03 
    5    6    0.58027391E-03  0.17350444E-05 
    6    6   -0.38647864E-03  0.14512828E-06 
    7    6    0.13816822E-02  0.10639245E-04 
    8    6    0.22682040E-03 -0.42714736E-05 
    9    6   -0.26055532E-03 -0.12781658E-05 
    1    7   -0.17162795E-02  0.58145248E-05 
    2    7   -0.18088853E-02  0.37382275E-04 
    3    7   -0.42687895E-03 -0.20159487E-03 
    4    7   -0.71875003E-03 -0.12043799E-03 
    5    7   -0.28703499E-03  0.82538009E-05 
    6    7    0.76656037E-03 -0.26034719E-05 
    7    7   -0.32645112E-03  0.34124453E-05 
    8    7    0.31081875E-04  0.12671643E-05 
    9    7    0.27723497E-03  0.21976554E-05 
    1    8    0.12227504E-02  0.19401272E-04 
    2    8    0.13218248E-02  0.77119580E-05 
    3    8    0.10074476E-02  0.55722901E-03 
    4    8   -0.20759086E-04 -0.43662923E-05 
    5    8    0.27028357E-03  0.34232647E-05 
    6    8   -0.14909277E-04 -0.60505305E-06 
    7    8   -0.17768533E-03 -0.67790716E-05 
    8    8   -0.30975812E-03  0.34357267E-06 
    9    8    0.55980315E-04  0.24981370E-05 
    1    9    0.18393095E-02 -0.24488583E-04 
    2    9    0.96052862E-03 -0.42311870E-04 
    3    9    0.19488989E-02  0.10060193E-02 
    4    9   -0.13286827E-02 -0.22874571E-03 
    5    9    0.12790728E-02 -0.13400855E-04 
    6    9   -0.22603245E-03  0.15107297E-05 
    7    9    0.57798220E-03 -0.35033615E-05 
    8    9   -0.18340295E-03  0.50580549E-05 
    9    9   -0.30184113E-03  0.12784438E-05 

   -3   -1   -2
    1    1    0.88672521E-03 -0.17098277E-05 
    2    1   -0.26885608E-02  0.35430968E-04 
    3    1   -0.35736961E-03 -0.17366564E-03 
    4    1    0.49853059E-02  0.82829462E-03 
    5    1   -0.36316259E-03  0.35531792E-05 
    6    1   -0.51391254E-03  0.57865094E-05 
    7    1   -0.18497431E-02 -0.20272963E-04 
    8    1    0.44499184E-03 -0.22503173E-04 
    9    1   -0.11446531E-02 -0.10769233E-04 
    1    2   -0.31963262E-02 -0.41020211E-06 
    2    2    0.15025637E-02 -0.77154668E-06 
    3    2    0.51469588E-02  0.28061011E-02 
    4    2   -0.43103314E-02 -0.79325277E-03 
    5    2    0.23993080E-02  0.22049354E-04 
    6    2    0.25034368E-02  0.21905215E-04 
    7    2    0.88526372E-03  0.11496400E-04 
    8    2   -0.36320754E-03  0.26946400E-04 
    9    2    0.12295859E-02  0.15286046E-04 
    1    3    0.20382413E-02 -0.10411695E-02 
    2    3    0.39671404E-02 -0.22275768E-02 
    3    3    0.12547342E-02  0.33969643E-05 
    4    3   -0.14094571E-02  0.43186627E-03 
    5    3    0.18584845E-02 -0.97927167E-03 
    6    3   -0.76315838E-03  0.36934087E-03 
    7    3    0.63837303E-03 -0.35493400E-03 
    8    3   -0.34903151E-03  0.21167642E-03 
    9    3   -0.11968436E-02  0.63047997E-03 
    1    4    0.31239248E-02 -0.47643174E-03 
    2    4   -0.15776317E-02  0.31765886E-03 
    3    4   -0.30728202E-02 -0.99423233E-03 
    4    4    0.14776089E-02  0.13207663E-04 
    5    4    0.59684207E-03 -0.93143039E-04 
    6    4   -0.15236344E-02  0.24589139E-03 
    7    4    0.97460491E-03 -0.15275483E-03 
    8    4   -0.51565339E-03  0.88744696E-04 
    9    4    0.53971030E-03 -0.87275621E-04 
    1    5   -0.29052512E-03  0.13432949E-04 
    2    5    0.16002710E-02 -0.17560202E-04 
    3    5    0.18450787E-02  0.95350069E-03 
    4    5   -0.21361301E-02 -0.34637761E-03 
    5    5   -0.24265090E-03 -0.13096458E-05 
    6    5    0.29936994E-03 -0.46468196E-05 
    7    5   -0.89716556E-03 -0.13869731E-04 
    8    5   -0.17591116E-03  0.82196924E-05 
    9    5    0.94826380E-03  0.36596195E-05 
    1    6    0.31884073E-03 -0.18643242E-04 
    2    6   -0.57038672E-03  0.13567861E-04 
    3    6    0.73283571E-04  0.48159605E-04 
    4    6   -0.26958017E-02 -0.44292708E-03 
    5    6    0.34462411E-03  0.16394069E-05 
    6    6   -0.28946954E-03 -0.12803716E-05 
    7    6    0.98113693E-03  0.47735042E-05 
    8    6   -0.37218180E-03  0.14227468E-04 
    9    6   -0.52168752E-03 -0.56646010E-06 
    1    7   -0.12555509E-02  0.99966557E-05 
    2    7   -0.31496227E-03  0.40340792E-05 
    3    7    0.22342965E-02  0.11529463E-02 
    4    7   -0.14281906E-02 -0.21533078E-03 
    5    7   -0.63392174E-03  0.58682780E-05 
    6    7    0.96171628E-03 -0.32600542E-05 
    7    7   -0.20111872E-03 -0.10988037E-05 
    8    7    0.31765996E-03 -0.58317986E-05 
    9    7    0.22236545E-03  0.71249048E-06 
    1    8    0.97696223E-03  0.28523826E-04 
    2    8    0.54817463E-03 -0.65500610E-05 
    3    8    0.43606805E-03  0.22927333E-03 
    4    8    0.30408049E-03  0.66018557E-04 
    5    8   -0.31612359E-03 -0.77276876E-05 
    6    8   -0.20999402E-03 -0.83267838E-05 
    7    8    0.16271039E-03 -0.29355534E-06 
    8    8   -0.48849792E-03 -0.15244238E-06 
    9    8    0.36827388E-03  0.26105207E-05 
    1    9    0.91093833E-03  0.14447532E-04 
    2    9   -0.99841975E-03  0.18009673E-04 
    3    9    0.10725456E-03  0.49484467E-04 
    4    9   -0.58737416E-03 -0.80521318E-04 
    5    9    0.10000015E-02 -0.27625971E-05 
    6    9   -0.80870858E-03 -0.10637928E-04 
    7    9    0.17455203E-03 -0.63041402E-05 
    8    9    0.20054787E-03 -0.34282324E-06 
    9    9   -0.88344878E-04 -0.28120297E-08 

   -3   -1   -1
    1    1    0.10165168E-01  0.91853762E-06 
    2    1    0.53468860E-03  0.19000681E-04 
    3    1    0.91866323E-03  0.53681436E-03 
    4    1   -0.79372633E-03 -0.17275617E-03 
    5    1    0.30861210E-02  0.20816840E-04 
    6    1   -0.39563755E-02 -0.13300570E-04 
    7    1   -0.80212996E-03 -0.13173211E-04 
    8    1   -0.79642102E-03  0.17260893E-05 
    9    1   -0.10980535E-02 -0.11009055E-04 
    1    2   -0.12027139E-02  0.67365447E-04 
    2    2    0.27649613E-02 -0.18115540E-04 
    3    2   -0.61544193E-03 -0.31242146E-03 
    4    2    0.90375031E-03  0.15739150E-03 
    5    2    0.12583263E-02  0.22372385E-04 
    6    2   -0.82189271E-03 -0.46838870E-04 
    7    2    0.21594923E-03 -0.13895417E-04 
    8    2    0.97569309E-03  0.32351422E-05 
    9    2   -0.10751017E-03  0.16852515E-04 
    1    3    0.67545258E-02 -0.33467788E-02 
    2    3   -0.10922061E-03 -0.82798115E-04 
    3    3    0.19727890E-02  0.11102808E-04 
    4    3    0.14391341E-01 -0.47687748E-02 
    5    3    0.24347102E-02 -0.12546773E-02 
    6    3   -0.68664694E-02  0.34969338E-02 
    7    3   -0.71795525E-03  0.31100469E-03 
    8    3    0.68611646E-03 -0.37134174E-03 
    9    3    0.16518679E-02 -0.84539219E-03 
    1    4   -0.48220331E-03  0.16215609E-03 
    2    4   -0.39798788E-04  0.22570124E-04 
    3    4    0.52158672E-03  0.20631544E-03 
    4    4    0.43112775E-02  0.24193037E-04 
    5    4   -0.17615299E-02  0.29127512E-03 
    6    4    0.59024592E-03 -0.85271138E-04 
    7    4    0.73907027E-04 -0.10129201E-04 
    8    4    0.52397076E-03 -0.11158720E-03 
    9    4   -0.56588341E-03  0.10001951E-03 
    1    5    0.50510432E-03  0.41288098E-04 
    2    5    0.17625289E-02 -0.17904308E-04 
    3    5    0.35344911E-02  0.18581492E-02 
    4    5   -0.46377772E-03 -0.63452359E-04 
    5    5    0.63105018E-03  0.67482975E-05 
    6    5    0.26078021E-03 -0.14194204E-04 
    7    5    0.15272789E-03 -0.91090471E-05 
    8    5   -0.61522876E-03  0.10413419E-04 
    9    5    0.76873345E-04  0.90526926E-05 
    1    6   -0.28522214E-02  0.16168018E-04 
    2    6   -0.14662909E-02  0.30288636E-04 
    3    6   -0.22872268E-02 -0.11937376E-02 
    4    6    0.15344118E-02  0.24935403E-03 
    5    6   -0.13481852E-03  0.22908106E-05 
    6    6    0.23917331E-03 -0.55875285E-05 
    7    6    0.90477186E-04  0.12426515E-05 
    8    6    0.74298344E-03 -0.12449353E-04 
    9    6    0.55480873E-03  0.16548284E-05 
    1    7   -0.19047900E-03 -0.18219413E-04 
    2    7    0.51679098E-04  0.16628020E-04 
    3    7    0.13473288E-02  0.70303981E-03 
    4    7   -0.19881413E-02 -0.31364281E-03 
    5    7    0.15897701E-04  0.12813520E-05 
    6    7    0.58139771E-03 -0.27744862E-05 
    7    7    0.58540396E-03  0.20371724E-05 
    8    7   -0.44122357E-03  0.12072212E-04 
    9    7   -0.17541482E-03 -0.81718743E-06 
    1    8    0.40329101E-04  0.12184494E-04 
    2    8   -0.25199834E-04 -0.48163165E-05 
    3    8    0.84626291E-03  0.44041937E-03 
    4    8   -0.45324802E-03 -0.65987672E-04 
    5    8   -0.37816296E-03 -0.79535551E-05 
    6    8    0.61817370E-03  0.94831380E-05 
    7    8   -0.11084865E-03 -0.38644914E-05 
    8    8    0.25091226E-03  0.11634025E-06 
    9    8    0.32465753E-03  0.33148489E-05 
    1    9   -0.26704844E-02  0.57755821E-04 
    2    9    0.22094750E-03  0.32967984E-05 
    3    9    0.87360997E-03  0.45159466E-03 
    4    9    0.76534371E-03  0.14756509E-03 
    5    9    0.17318538E-03  0.51419348E-05 
    6    9    0.47694682E-03 -0.11889600E-04 
    7    9   -0.46961935E-03 -0.12082382E-04 
    8    9    0.55327048E-03 -0.13862270E-04 
    9    9   -0.19018108E-03  0.77930944E-05 

   -3    0   -3
    1    1    0.45184458E-02 -0.58224776E-13 
    2    1   -0.64322416E-02  0.72031939E-04 
    3    1    0.24973043E-03  0.16032570E-03 
    4    1    0.50993110E-02  0.84355890E-03 
    5    1   -0.28741260E-03 -0.29822777E-05 
    6    1   -0.15151192E-02  0.41339472E-06 
    7    1   -0.11058536E-02 -0.22205912E-04 
    8    1    0.79986641E-03 -0.34195661E-04 
    9    1   -0.21086347E-02 -0.22851034E-04 
    1    2   -0.64322412E-02 -0.72031940E-04 
    2    2    0.54785041E-02  0.85044433E-12 
    3    2    0.53150913E-02  0.29220910E-02 
    4    2   -0.10949908E-01 -0.19969281E-02 
    5    2    0.35717172E-03  0.17957654E-05 
    6    2    0.36648541E-02  0.48227600E-04 
    7    2    0.97619652E-04  0.10078525E-04 
    8    2    0.54271059E-05  0.20823249E-04 
    9    2   -0.72897837E-03 -0.24755651E-04 
    1    3    0.24972959E-03 -0.16032525E-03 
    2    3    0.53150915E-02 -0.29220911E-02 
    3    3    0.47054580E-02  0.11768610E-11 
    4    3   -0.36013688E-02  0.11696984E-02 
    5    3    0.75685550E-03 -0.40366436E-03 
    6    3    0.11317948E-02 -0.60454018E-03 
    7    3    0.17086012E-02 -0.87801201E-03 
    8    3   -0.11276476E-02  0.63430213E-03 
    9    3    0.19877058E-03 -0.10584884E-03 
    1    4    0.50993108E-02 -0.84355887E-03 
    2    4   -0.10949906E-01  0.19969277E-02 
    3    4   -0.36013689E-02 -0.11696984E-02 
    4    4    0.53147589E-02 -0.12862340E-11 
    5    4   -0.36884062E-02  0.62047437E-03 
    6    4   -0.77819578E-03  0.13372051E-03 
    7    4    0.35501608E-03 -0.58502000E-04 
    8    4   -0.20359839E-03  0.27194922E-04 
    9    4   -0.60389016E-04 -0.62204227E-05 
    1    5   -0.28741232E-03  0.29822761E-05 
    2    5    0.35717164E-03 -0.17957665E-05 
    3    5    0.75685523E-03  0.40366422E-03 
    4    5   -0.36884062E-02 -0.62047437E-03 
    5    5    0.42609994E-03 -0.60186226E-13 
    6    5    0.43514220E-04 -0.44098792E-05 
    7    5    0.10820546E-02  0.49529925E-05 
    8    5   -0.66604471E-03  0.15040323E-04 
    9    5   -0.17550680E-03 -0.92168164E-06 
    1    6   -0.15151193E-02 -0.41339633E-06 
    2    6    0.36648544E-02 -0.48227607E-04 
    3    6    0.11317950E-02  0.60454028E-03 
    4    6   -0.77819596E-03 -0.13372055E-03 
    5    6    0.43514398E-04  0.44098784E-05 
    6    6    0.64831250E-03  0.48411988E-12 
    7    6   -0.73473482E-05  0.21338946E-05 
    8    6   -0.64992183E-03  0.21343719E-04 
    9    6    0.10508324E-02  0.38041153E-05 
    1    7   -0.11058537E-02  0.22205915E-04 
    2    7    0.97619717E-04 -0.10078531E-04 
    3    7    0.17086009E-02  0.87801186E-03 
    4    7    0.35501627E-03  0.58502030E-04 
    5    7    0.10820546E-02 -0.49529935E-05 
    6    7   -0.73473608E-05 -0.21338929E-05 
    7    7    0.65040520E-03  0.51624438E-15 
    8    7    0.65059714E-03 -0.12311020E-04 
    9    7    0.15158831E-04  0.68742215E-05 
    1    8    0.79986657E-03  0.34195660E-04 
    2    8    0.54273884E-05 -0.20823246E-04 
    3    8   -0.11276476E-02 -0.63430212E-03 
    4    8   -0.20359848E-03 -0.27194942E-04 
    5    8   -0.66604460E-03 -0.15040320E-04 
    6    8   -0.64992181E-03 -0.21343718E-04 
    7    8    0.65059705E-03  0.12311018E-04 
    8    8   -0.45170187E-04  0.11368344E-12 
    9    8    0.63995489E-03  0.96924255E-05 
    1    9   -0.21086345E-02  0.22851035E-04 
    2    9   -0.72897849E-03  0.24755648E-04 
    3    9    0.19877099E-03  0.10584905E-03 
    4    9   -0.60389236E-04  0.62203872E-05 
    5    9   -0.17550683E-03  0.92167957E-06 
    6    9    0.10508323E-02 -0.38041150E-05 
    7    9    0.15159005E-04 -0.68742217E-05 
    8    9    0.63995489E-03 -0.96924245E-05 
    9    9    0.39828393E-03 -0.10267939E-11 

   -3    0   -2
    1    1    0.65082942E-02 -0.12889806E-04 
    2    1   -0.31912835E-02  0.65957586E-04 
    3    1   -0.52622547E-02 -0.27082299E-02 
    4    1   -0.89213674E-03 -0.18344260E-03 
    5    1    0.20732662E-03  0.12974208E-04 
    6    1   -0.25816065E-02  0.12751028E-04 
    7    1    0.22214114E-02  0.24478490E-04 
    8    1   -0.20308103E-02  0.16794772E-04 
    9    1   -0.12385363E-02 -0.19518441E-04 
    1    2   -0.61682103E-02 -0.51026989E-04 
    2    2    0.52510199E-02 -0.24750858E-04 
    3    2   -0.60639948E-03 -0.32217142E-03 
    4    2   -0.82033168E-03 -0.17142232E-03 
    5    2    0.90123388E-03  0.10773792E-04 
    6    2    0.22843860E-02  0.15783183E-04 
    7    2    0.37440230E-03  0.13865310E-04 
    8    2    0.88880369E-03  0.10950933E-04 
    9    2    0.15208526E-02  0.28607481E-04 
    1    3    0.15061715E-02 -0.75915064E-03 
    2    3    0.26222756E-02 -0.14911669E-02 
    3    3    0.31028601E-02 -0.48006202E-05 
    4    3    0.33572609E-02 -0.11433313E-02 
    5    3   -0.10899785E-02  0.58651131E-03 
    6    3    0.89142994E-03 -0.50013720E-03 
    7    3   -0.51980344E-03  0.27189517E-03 
    8    3    0.98502754E-04 -0.43082131E-04 
    9    3    0.19122309E-02 -0.99485018E-03 
    1    4    0.58535672E-03 -0.74619613E-04 
    2    4   -0.50030102E-02  0.92830059E-03 
    3    4   -0.29028683E-02 -0.95941441E-03 
    4    4    0.41776427E-02  0.10710774E-04 
    5    4    0.94780280E-03 -0.16022129E-03 
    6    4   -0.23519607E-02  0.39615903E-03 
    7    4   -0.19424328E-02  0.30566493E-03 
    8    4    0.16965685E-02 -0.32140490E-03 
    9    4   -0.43930328E-02  0.70157511E-03 
    1    5   -0.42350401E-03  0.13751325E-04 
    2    5   -0.14923337E-02  0.17230744E-04 
    3    5    0.20731175E-02  0.10889129E-02 
    4    5   -0.16302137E-02 -0.27024703E-03 
    5    5   -0.27599110E-03  0.10734664E-05 
    6    5    0.42272942E-03 -0.93748480E-07 
    7    5    0.11925047E-02  0.87589392E-05 
    8    5    0.42579772E-03 -0.72427839E-05 
    9    5    0.52624097E-03  0.10416289E-04 
    1    6   -0.29614740E-02  0.20298134E-04 
    2    6    0.32166064E-02 -0.52735741E-04 
    3    6   -0.14970478E-03 -0.67543060E-04 
    4    6   -0.26129555E-03 -0.35980589E-04 
    5    6    0.54576105E-03  0.50953994E-06 
    6    6    0.88763688E-03 -0.98812163E-05 
    7    6   -0.10732352E-02 -0.42334272E-05 
    8    6    0.50532582E-03 -0.76625461E-05 
    9    6    0.57105495E-03  0.50149589E-05 
    1    7   -0.79477871E-03  0.17343704E-04 
    2    7    0.27040989E-02 -0.67006371E-04 
    3    7    0.12331912E-02  0.64491010E-03 
    4    7   -0.12140247E-02 -0.18146760E-03 
    5    7    0.67573163E-05  0.22993598E-05 
    6    7    0.11863707E-03 -0.80683018E-05 
    7    7    0.69956961E-03  0.47109486E-06 
    8    7    0.10487712E-03 -0.20145775E-05 
    9    7    0.60272172E-03  0.26091580E-05 
    1    8   -0.63008545E-03  0.13220109E-04 
    2    8   -0.77107515E-03 -0.23922610E-04 
    3    8    0.17632839E-02  0.93891678E-03 
    4    8   -0.13964198E-02 -0.24214890E-03 
    5    8    0.37690445E-03  0.31014576E-05 
    6    8    0.46280574E-03  0.58939810E-05 
    7    8    0.13163306E-03 -0.97001680E-06 
    8    8    0.27456058E-03  0.43299630E-07 
    9    8   -0.29220892E-03 -0.11818943E-04 
    1    9   -0.10980492E-02  0.20420587E-04 
    2    9    0.12785295E-02  0.93194060E-05 
    3    9   -0.19804454E-02 -0.10180484E-02 
    4    9   -0.11272004E-02 -0.16311733E-03 
    5    9    0.96911584E-03 -0.10142258E-05 
    6    9   -0.73735181E-03 -0.67421658E-05 
    7    9    0.14205023E-03 -0.10091970E-04 
    8    9   -0.43056341E-04  0.17909765E-05 
    9    9   -0.77629485E-03  0.10952597E-04 

   -3    0   -1
    1    1    0.18814337E-02 -0.89403526E-05 
    2    1    0.26040887E-02 -0.20217802E-04 
    3    1   -0.10589567E-01 -0.55772433E-02 
    4    1    0.26645921E-02  0.41468624E-03 
    5    1    0.20484945E-02 -0.24770364E-05 
    6    1   -0.17856170E-02  0.20486339E-04 
    7    1   -0.32506874E-02 -0.30911350E-04 
    8    1    0.92867078E-03 -0.30772110E-04 
    9    1   -0.12100402E-02 -0.42745680E-04 
    1    2   -0.39144535E-02  0.14644931E-04 
    2    2    0.63567474E-03 -0.16735033E-04 
    3    2    0.32319313E-02  0.17753060E-02 
    4    2    0.73260558E-03  0.10974398E-03 
    5    2   -0.14907178E-02 -0.66560180E-05 
    6    2    0.15057225E-02 -0.94385233E-06 
    7    2    0.25898871E-02  0.56401160E-04 
    8    2   -0.38952913E-03  0.62221325E-05 
    9    2    0.12812505E-02  0.39449584E-04 
    1    3    0.10350432E-01 -0.54210397E-02 
    2    3    0.44895744E-02 -0.24796578E-02 
    3    3    0.22122807E-03  0.77710605E-05 
    4    3    0.53224436E-02 -0.17737020E-02 
    5    3    0.20022703E-02 -0.10235744E-02 
    6    3   -0.36253601E-02  0.18484861E-02 
    7    3   -0.42327634E-03  0.19473786E-03 
    8    3    0.19003161E-02 -0.10348022E-02 
    9    3    0.17357451E-02 -0.90289848E-03 
    1    4    0.41049436E-02 -0.62391067E-03 
    2    4   -0.11377331E-02  0.17980090E-03 
    3    4    0.52327996E-02  0.16700479E-02 
    4    4   -0.41558463E-02  0.30713190E-04 
    5    4    0.19670051E-02 -0.33671283E-03 
    6    4   -0.38962703E-02  0.64001155E-03 
    7    4    0.20320269E-02 -0.31968457E-03 
    8    4   -0.14823791E-03  0.18506255E-04 
    9    4   -0.15492307E-02  0.25284504E-03 
    1    5    0.40837584E-03  0.27260655E-04 
    2    5   -0.64610247E-04 -0.22586330E-05 
    3    5    0.66305930E-02  0.34823440E-02 
    4    5   -0.69419835E-03 -0.11424251E-03 
    5    5   -0.75539636E-04  0.76056817E-07 
    6    5    0.22238893E-03 -0.10608439E-04 
    7    5    0.32991189E-03  0.17910486E-05 
    8    5    0.18645618E-03 -0.93239657E-05 
    9    5   -0.69963331E-03  0.76571455E-05 
    1    6   -0.49346555E-03 -0.10765843E-04 
    2    6    0.11935452E-02 -0.32739290E-05 
    3    6   -0.21532594E-02 -0.10737576E-02 
    4    6    0.11709090E-02  0.19106395E-03 
    5    6   -0.10606106E-02  0.11976101E-04 
    6    6    0.84499759E-03 -0.56007366E-05 
    7    6    0.10927859E-02  0.23752942E-07 
    8    6   -0.32244679E-03  0.14920990E-04 
    9    6    0.15404784E-02  0.24158851E-05 
    1    7   -0.25336585E-02  0.10363006E-04 
    2    7    0.24584692E-03  0.15811761E-04 
    3    7    0.28822516E-02  0.15114501E-02 
    4    7   -0.17613344E-02 -0.28055983E-03 
    5    7    0.52025921E-03  0.68531244E-05 
    6    7    0.17734128E-02 -0.97460429E-05 
    7    7   -0.32098814E-03  0.31649078E-05 
    8    7   -0.73751040E-04 -0.50757518E-06 
    9    7    0.47255263E-03  0.16616111E-05 
    1    8   -0.42864202E-03  0.18885265E-04 
    2    8    0.25425995E-03  0.48587166E-05 
    3    8    0.31889938E-02  0.17183060E-02 
    4    8   -0.20627220E-03 -0.12669011E-04 
    5    8   -0.13379752E-03 -0.26517703E-05 
    6    8   -0.14498470E-03 -0.12057267E-04 
    7    8    0.10709943E-02  0.26912937E-04 
    8    8   -0.38147341E-03  0.85448431E-08 
    9    8   -0.30751355E-04 -0.36790595E-05 
    1    9    0.20199887E-03  0.17645203E-04 
    2    9   -0.30903110E-03  0.20551883E-04 
    3    9   -0.78599824E-03 -0.39346324E-03 
    4    9    0.13850059E-02  0.24261374E-03 
    5    9    0.19527399E-03  0.60045889E-05 
    6    9   -0.20474521E-04 -0.10919432E-04 
    7    9   -0.53506876E-03 -0.97625911E-05 
    8    9   -0.30086814E-03  0.18824862E-05 
    9    9   -0.11878964E-03  0.10659627E-04 

   -3    0    0
    1    1    0.12534277E-01 -0.95690606E-10 
    2    1    0.21082359E-02 -0.74489210E-04 
    3    1    0.62622673E-02  0.33245404E-02 
    4    1    0.15163456E-02  0.20161413E-03 
    5    1    0.71957321E-03 -0.25107956E-04 
    6    1   -0.40980334E-02  0.36207905E-05 
    7    1   -0.18989462E-02 -0.29022892E-04 
    8    1   -0.12283745E-02 -0.50113639E-05 
    9    1   -0.72365467E-03 -0.44317880E-04 
    1    2    0.21081656E-02  0.74488693E-04 
    2    2    0.50942485E-02  0.25642200E-10 
    3    2    0.10615492E-03  0.10918808E-03 
    4    2    0.49175388E-02  0.91535739E-03 
    5    2    0.76086543E-04  0.13632422E-04 
    6    2   -0.75837644E-03 -0.48126279E-04 
    7    2    0.82351852E-03  0.58466816E-06 
    8    2    0.20178881E-03 -0.10996753E-04 
    9    2    0.18784031E-02  0.42803010E-04 
    1    3    0.62624658E-02 -0.33246455E-02 
    2    3    0.10619823E-03 -0.10921135E-03 
    3    3    0.53492734E-02 -0.11534053E-10 
    4    3    0.85084329E-02 -0.27976597E-02 
    5    3    0.30306557E-02 -0.16069781E-02 
    6    3   -0.44697602E-02  0.22839830E-02 
    7    3   -0.41709724E-02  0.21052057E-02 
    8    3    0.90243595E-03 -0.47566960E-03 
    9    3   -0.49480606E-02  0.25299851E-02 
    1    4    0.15163930E-02 -0.20162219E-03 
    2    4    0.49175417E-02 -0.91535784E-03 
    3    4    0.85085088E-02  0.27976850E-02 
    4    4    0.14571283E-02  0.28791587E-10 
    5    4    0.21627390E-05 -0.19049366E-04 
    6    4    0.14129128E-02 -0.22052559E-03 
    7    4   -0.40956326E-03  0.67464148E-04 
    8    4    0.12465818E-03 -0.49822860E-04 
    9    4   -0.30497782E-03  0.22121657E-04 
    1    5    0.71966926E-03  0.25107963E-04 
    2    5    0.76078476E-04 -0.13632351E-04 
    3    5    0.30305202E-02  0.16069075E-02 
    4    5    0.21607198E-05  0.19049050E-04 
    5    5    0.85948962E-03  0.32727468E-10 
    6    5   -0.15268236E-02 -0.17755866E-04 
    7    5    0.16367456E-04 -0.14362534E-04 
    8    5   -0.13799767E-03 -0.47072956E-05 
    9    5   -0.67257777E-03 -0.29343222E-05 
    1    6   -0.40981895E-02 -0.36191526E-05 
    2    6   -0.75837554E-03  0.48126210E-04 
    3    6   -0.44696991E-02 -0.22839511E-02 
    4    6    0.14129192E-02  0.22052665E-03 
    5    6   -0.15268082E-02  0.17755735E-04 
    6    6    0.26513664E-02 -0.26170594E-10 
    7    6   -0.58398939E-04  0.77315380E-05 
    8    6    0.34883676E-03 -0.25314494E-06 
    9    6    0.75311867E-03  0.90212437E-05 
    1    7   -0.18990864E-02  0.29024761E-04 
    2    7    0.82354172E-03 -0.58521165E-06 
    3    7   -0.41711326E-02 -0.21052884E-02 
    4    7   -0.40956978E-03 -0.67465224E-04 
    5    7    0.16358629E-04  0.14362547E-04 
    6    7   -0.58380091E-04 -0.77315794E-05 
    7    7    0.37452541E-03  0.36993140E-10 
    8    7    0.19683758E-03 -0.77990265E-05 
    9    7    0.12113130E-03  0.10915409E-04 
    1    8   -0.12283890E-02  0.50112789E-05 
    2    8    0.20178800E-03  0.10996730E-04 
    3    8    0.90241860E-03  0.47566054E-03 
    4    8    0.12469251E-03  0.49829233E-04 
    5    8   -0.13800636E-03  0.47071423E-05 
    6    8    0.34883808E-03  0.25313893E-06 
    7    8    0.19683852E-03  0.77990239E-05 
    8    8    0.55363417E-03 -0.19724958E-10 
    9    8    0.75023699E-04  0.35732680E-05 
    1    9   -0.72381786E-03  0.44318870E-04 
    2    9    0.18784291E-02 -0.42803464E-04 
    3    9   -0.49481885E-02 -0.25300511E-02 
    4    9   -0.30498223E-03 -0.22122389E-04 
    5    9   -0.67258546E-03  0.29343616E-05 
    6    9    0.75314807E-03 -0.90211749E-05 
    7    9    0.12113260E-03 -0.10915378E-04 
    8    9    0.75033303E-04 -0.35735167E-05 
    9    9    0.10185383E-02 -0.27491018E-10 

   -3    1   -4
    1    1    0.88672536E-03  0.17098178E-05 
    2    1   -0.31963267E-02  0.41019660E-06 
    3    1    0.20382541E-02  0.10411763E-02 
    4    1    0.31239247E-02  0.47643172E-03 
    5    1   -0.29052511E-03 -0.13432953E-04 
    6    1    0.31884087E-03  0.18643247E-04 
    7    1   -0.12555509E-02 -0.99966546E-05 
    8    1    0.97696145E-03 -0.28523818E-04 
    9    1    0.91093786E-03 -0.14447541E-04 
    1    2   -0.26885612E-02 -0.35430981E-04 
    2    2    0.15025635E-02  0.77155994E-06 
    3    2    0.39671362E-02  0.22275745E-02 
    4    2   -0.15776337E-02 -0.31765923E-03 
    5    2    0.16002709E-02  0.17560205E-04 
    6    2   -0.57038648E-03 -0.13567854E-04 
    7    2   -0.31496165E-03 -0.40340635E-05 
    8    2    0.54817484E-03  0.65500603E-05 
    9    2   -0.99841975E-03 -0.18009673E-04 
    1    3   -0.35736982E-03  0.17366575E-03 
    2    3    0.51469592E-02 -0.28061013E-02 
    3    3    0.12547346E-02 -0.33969568E-05 
    4    3   -0.30728199E-02  0.99423222E-03 
    5    3    0.18450790E-02 -0.95350084E-03 
    6    3    0.73283606E-04 -0.48159623E-04 
    7    3    0.22342963E-02 -0.11529462E-02 
    8    3    0.43606796E-03 -0.22927328E-03 
    9    3    0.10725447E-03 -0.49484421E-04 
    1    4    0.49853056E-02 -0.82829457E-03 
    2    4   -0.43103291E-02  0.79325237E-03 
    3    4   -0.14094485E-02 -0.43186341E-03 
    4    4    0.14776084E-02 -0.13207669E-04 
    5    4   -0.21361297E-02  0.34637754E-03 
    6    4   -0.26958013E-02  0.44292703E-03 
    7    4   -0.14281906E-02  0.21533078E-03 
    8    4    0.30408054E-03 -0.66018571E-04 
    9    4   -0.58737404E-03  0.80521298E-04 
    1    5   -0.36316257E-03 -0.35531801E-05 
    2    5    0.23993080E-02 -0.22049352E-04 
    3    5    0.18584835E-02  0.97927111E-03 
    4    5    0.59684199E-03  0.93143022E-04 
    5    5   -0.24265127E-03  0.13096463E-05 
    6    5    0.34462395E-03 -0.16394076E-05 
    7    5   -0.63392178E-03 -0.58682787E-05 
    8    5   -0.31612368E-03  0.77276893E-05 
    9    5    0.10000016E-02  0.27625965E-05 
    1    6   -0.51391287E-03 -0.57865089E-05 
    2    6    0.25034367E-02 -0.21905211E-04 
    3    6   -0.76316073E-03 -0.36934210E-03 
    4    6   -0.15236344E-02 -0.24589140E-03 
    5    6    0.29936991E-03  0.46468208E-05 
    6    6   -0.28946914E-03  0.12803720E-05 
    7    6    0.96171618E-03  0.32600553E-05 
    8    6   -0.20999387E-03  0.83267807E-05 
    9    6   -0.80870861E-03  0.10637928E-04 
    1    7   -0.18497427E-02  0.20272959E-04 
    2    7    0.88526303E-03 -0.11496389E-04 
    3    7    0.63837201E-03  0.35493347E-03 
    4    7    0.97460452E-03  0.15275477E-03 
    5    7   -0.89716560E-03  0.13869732E-04 
    6    7    0.98113672E-03 -0.47735029E-05 
    7    7   -0.20111836E-03  0.10988029E-05 
    8    7    0.16271043E-03  0.29355451E-06 
    9    7    0.17455206E-03  0.63041384E-05 
    1    8    0.44499196E-03  0.22503175E-04 
    2    8   -0.36320731E-03 -0.26946398E-04 
    3    8   -0.34903153E-03 -0.21167643E-03 
    4    8   -0.51565328E-03 -0.88744673E-04 
    5    8   -0.17591112E-03 -0.82196910E-05 
    6    8   -0.37218184E-03 -0.14227469E-04 
    7    8    0.31765989E-03  0.58317966E-05 
    8    8   -0.48849792E-03  0.15244269E-06 
    9    8    0.20054802E-03  0.34282822E-06 
    1    9   -0.11446535E-02  0.10769237E-04 
    2    9    0.12295855E-02 -0.15286044E-04 
    3    9   -0.11968429E-02 -0.63047961E-03 
    4    9    0.53970948E-03  0.87275490E-04 
    5    9    0.94826399E-03 -0.36596217E-05 
    6    9   -0.52168755E-03  0.56646113E-06 
    7    9    0.22236558E-03 -0.71249019E-06 
    8    9    0.36827382E-03 -0.26105194E-05 
    9    9   -0.88345295E-04  0.28112673E-08 

   -3    1   -3
    1    1    0.38423953E-02  0.42443557E-06 
    2    1    0.31590201E-02 -0.18893322E-04 
    3    1   -0.46186465E-02 -0.24262617E-02 
    4    1   -0.67992785E-03 -0.15215794E-03 
    5    1   -0.38260436E-03 -0.11800875E-04 
    6    1   -0.17049727E-02  0.86859225E-05 
    7    1   -0.23092154E-04 -0.10438216E-04 
    8    1   -0.14486576E-02  0.83681477E-05 
    9    1   -0.69761044E-04 -0.16499556E-04 
    1    2   -0.38781278E-02 -0.42725716E-04 
    2    2    0.37231566E-02 -0.18126627E-04 
    3    2   -0.41533458E-03 -0.19512972E-03 
    4    2    0.11022915E-02  0.17618955E-03 
    5    2    0.16967972E-02  0.31251655E-04 
    6    2    0.13686927E-02  0.11860088E-04 
    7    2    0.48695383E-03  0.21374934E-04 
    8    2    0.51636239E-03  0.10215653E-04 
    9    2    0.66837962E-03  0.15745436E-04 
    1    3    0.30552570E-03 -0.15818309E-03 
    2    3    0.65228694E-02 -0.35784193E-02 
    3    3    0.46944216E-02 -0.10834939E-04 
    4    3   -0.14278562E-02  0.45136921E-03 
    5    3    0.19853100E-03 -0.73679189E-04 
    6    3    0.10343479E-02 -0.56739935E-03 
    7    3   -0.16153638E-03  0.89458812E-04 
    8    3   -0.11992771E-02  0.66323450E-03 
    9    3    0.27492947E-02 -0.14326991E-02 
    1    4    0.59623981E-02 -0.10063502E-02 
    2    4   -0.21794046E-01  0.39463668E-02 
    3    4    0.26399936E-02  0.90499598E-03 
    4    4    0.71140195E-02 -0.17807967E-04 
    5    4    0.48203323E-02 -0.79269117E-03 
    6    4   -0.46294542E-03  0.10655758E-03 
    7    4    0.21505127E-02 -0.36369384E-03 
    8    4    0.29040624E-02 -0.55239074E-03 
    9    4   -0.60462921E-02  0.98790368E-03 
    1    5   -0.10972266E-02  0.21838903E-05 
    2    5   -0.13117324E-02  0.13836291E-04 
    3    5    0.14468309E-02  0.76917649E-03 
    4    5   -0.22910489E-02 -0.37856740E-03 
    5    5   -0.86641359E-03  0.48429203E-05 
    6    5    0.61676518E-03  0.94551976E-06 
    7    5    0.55400838E-03  0.82849962E-05 
    8    5    0.28043572E-03 -0.16861732E-05 
    9    5    0.45649268E-03  0.75764873E-05 
    1    6   -0.93597473E-03  0.51577121E-05 
    2    6    0.61488042E-03  0.30078413E-04 
    3    6    0.50051057E-03  0.28574391E-03 
    4    6   -0.28208333E-03 -0.38269502E-04 
    5    6    0.39429791E-04  0.10727329E-04 
    6    6    0.73834859E-03 -0.52520159E-05 
    7    6   -0.10126560E-02 -0.12390388E-05 
    8    6   -0.62364681E-05  0.48511304E-05 
    9    6    0.10899476E-02  0.67420920E-05 
    1    7   -0.14537291E-02  0.17459899E-04 
    2    7   -0.14601840E-02  0.37821385E-04 
    3    7    0.27867016E-03  0.16281621E-03 
    4    7   -0.24986112E-02 -0.39924161E-03 
    5    7   -0.82990959E-03  0.15612710E-04 
    6    7    0.10385465E-03 -0.28126103E-05 
    7    7    0.86829156E-03  0.80025756E-05 
    8    7   -0.47115626E-03  0.18407575E-04 
    9    7    0.47797543E-03  0.38419489E-05 
    1    8    0.79223267E-03  0.32564985E-04 
    2    8   -0.57760748E-03 -0.24074927E-04 
    3    8    0.12273112E-02  0.65728157E-03 
    4    8    0.42398761E-03  0.92656382E-04 
    5    8    0.83945084E-04 -0.35623186E-05 
    6    8   -0.74860823E-04 -0.86096850E-05 
    7    8   -0.49207292E-03 -0.19415198E-04 
    8    8    0.25173049E-03  0.47018052E-06 
    9    8   -0.43026369E-03 -0.15591118E-04 
    1    9    0.23843657E-03  0.97140229E-05 
    2    9    0.82496740E-03  0.10872112E-05 
    3    9   -0.90776911E-04 -0.42815160E-04 
    4    9    0.13471357E-04  0.14056490E-04 
    5    9    0.93958659E-03  0.42737588E-05 
    6    9    0.11951376E-03 -0.71697163E-05 
    7    9    0.59561233E-03 -0.15943213E-05 
    8    9   -0.36784141E-03  0.88940840E-05 
    9    9   -0.62695837E-04  0.86296049E-05 

   -3    1   -2
    1    1    0.80859161E-02  0.45923165E-04 
    2    1    0.60381845E-03 -0.23297970E-04 
    3    1   -0.12653769E-01 -0.65712301E-02 
    4    1    0.30134036E-02  0.48541866E-03 
    5    1    0.57956253E-03  0.60206064E-05 
    6    1    0.61082674E-04  0.16474283E-04 
    7    1   -0.47320001E-02 -0.67291798E-04 
    8    1    0.43790467E-02 -0.80639079E-04 
    9    1    0.10898113E-02 -0.18093704E-04 
    1    2   -0.10333305E-02 -0.57858499E-05 
    2    2    0.80931329E-02 -0.69189010E-04 
    3    2    0.33149698E-02  0.17726172E-02 
    4    2   -0.49752017E-04 -0.27354393E-04 
    5    2    0.12064317E-02  0.27077619E-04 
    6    2   -0.14110015E-03 -0.30308645E-04 
    7    2    0.20119261E-02  0.58087171E-04 
    8    2   -0.11798523E-02  0.16794593E-04 
    9    2    0.15238519E-02  0.34825158E-04 
    1    3    0.44744125E-02 -0.23903374E-02 
    2    3    0.38870965E-02 -0.21264551E-02 
    3    3    0.75279797E-02 -0.53719650E-04 
    4    3    0.60712224E-03 -0.21362234E-03 
    5    3   -0.13170588E-03  0.87495511E-04 
    6    3    0.23180610E-03 -0.14826473E-03 
    7    3    0.68940861E-03 -0.34551840E-03 
    8    3    0.31811834E-05  0.25134652E-05 
    9    3    0.19127744E-02 -0.99492158E-03 
    1    4   -0.54022231E-03  0.12079399E-03 
    2    4   -0.26124169E-01  0.46697909E-02 
    3    4   -0.91010615E-01 -0.30006549E-01 
    4    4    0.89711422E-02  0.43296226E-04 
    5    4   -0.14866158E-02  0.22165140E-03 
    6    4   -0.56692583E-02  0.92699218E-03 
    7    4   -0.25021470E-02  0.34148664E-03 
    8    4   -0.95417383E-03  0.17140133E-03 
    9    4   -0.78960981E-02  0.12240902E-02 
    1    5    0.14229340E-04  0.45876967E-05 
    2    5    0.17314320E-02 -0.73921487E-04 
    3    5    0.70440699E-02  0.36842709E-02 
    4    5   -0.15373843E-02 -0.25284694E-03 
    5    5    0.31698546E-02 -0.11430404E-05 
    6    5    0.14371902E-03 -0.54443317E-05 
    7    5    0.56104101E-03  0.19117534E-04 
    8    5    0.97587273E-03 -0.18176293E-04 
    9    5   -0.11671522E-02  0.49171209E-05 
    1    6   -0.44064849E-03 -0.10131592E-04 
    2    6    0.26023851E-02 -0.23697353E-04 
    3    6    0.10217573E-01  0.53167172E-02 
    4    6   -0.11912258E-02 -0.18200660E-03 
    5    6   -0.12809309E-03  0.31035122E-05 
    6    6   -0.77696231E-03  0.22420461E-05 
    7    6    0.15407019E-02  0.83304833E-05 
    8    6   -0.67665258E-03  0.18295701E-04 
    9    6    0.49793280E-03  0.23945839E-04 
    1    7   -0.17937413E-02  0.19954530E-04 
    2    7    0.72449688E-02 -0.13951598E-03 
    3    7    0.95051380E-02  0.48856702E-02 
    4    7   -0.40606701E-02 -0.64869014E-03 
    5    7    0.13698613E-02 -0.13008028E-05 
    6    7    0.68741762E-03 -0.59477227E-05 
    7    7   -0.71042895E-03  0.11455514E-04 
    8    7   -0.29718851E-03  0.10237159E-04 
    9    7   -0.10925743E-03  0.17844549E-04 
    1    8   -0.16695388E-02 -0.73618265E-06 
    2    8   -0.26789537E-02 -0.39215243E-04 
    3    8    0.19817257E-02  0.10654470E-02 
    4    8    0.48972015E-03  0.11070809E-03 
    5    8    0.59923515E-03  0.62797989E-05 
    6    8    0.44506593E-03  0.37430836E-05 
    7    8    0.74616987E-03  0.19463612E-04 
    8    8    0.33692843E-03 -0.90153935E-06 
    9    8   -0.82211002E-03 -0.21676859E-04 
    1    9   -0.16040804E-02  0.17254769E-04 
    2    9    0.91426640E-02 -0.11127099E-03 
    3    9   -0.80033374E-02 -0.41467434E-02 
    4    9    0.66823163E-03  0.12271324E-03 
    5    9   -0.18024877E-02  0.11863081E-04 
    6    9    0.11444835E-02 -0.86187822E-05 
    7    9   -0.30882662E-03 -0.34596645E-05 
    8    9   -0.43459890E-03  0.76553745E-05 
    9    9    0.30383699E-02  0.99980203E-05 

   -3    1   -1
    1    1    0.47961557E-02  0.30361426E-04 
    2    1    0.28520353E-01 -0.21801119E-03 
    3    1    0.53845314E-02  0.27854767E-02 
    4    1   -0.12313552E-02 -0.19126782E-03 
    5    1    0.73751824E-03 -0.33612154E-05 
    6    1   -0.32866401E-02  0.15380404E-04 
    7    1    0.70171510E-02  0.48705291E-04 
    8    1   -0.36274286E-02  0.39085767E-04 
    9    1    0.78750567E-02  0.23231604E-04 
    1    2   -0.51175546E-02 -0.62736708E-04 
    2    2    0.72021479E-02 -0.11759293E-04 
    3    2   -0.16187258E-01 -0.87774781E-02 
    4    2    0.28524921E-02  0.49884184E-03 
    5    2   -0.30949818E-02 -0.21590795E-04 
    6    2    0.58668990E-02  0.65646928E-04 
    7    2    0.15885348E-03  0.20006502E-04 
    8    2   -0.43819527E-03  0.46128396E-05 
    9    2    0.41675130E-02  0.59749885E-04 
    1    3    0.23899274E-02 -0.12909227E-02 
    2    3    0.20596839E-02 -0.11500527E-02 
    3    3    0.74213114E-02 -0.44479154E-04 
    4    3    0.24017103E-03 -0.91137052E-04 
    5    3    0.17878607E-03 -0.90932312E-04 
    6    3    0.79864061E-03 -0.42670237E-03 
    7    3    0.29221697E-04 -0.27086299E-04 
    8    3    0.50556700E-03 -0.26810973E-03 
    9    3    0.11013161E-02 -0.58009851E-03 
    1    4    0.13787529E-02 -0.16374619E-03 
    2    4    0.30598626E-02 -0.60454515E-03 
    3    4   -0.13396767E+00 -0.44464777E-01 
    4    4    0.11526899E-02  0.39402804E-04 
    5    4    0.15245703E-02 -0.27536041E-03 
    6    4   -0.11092823E-01  0.17911640E-02 
    7    4    0.17171053E-02 -0.31223473E-03 
    8    4    0.42627174E-02 -0.77638227E-03 
    9    4    0.21667597E-02 -0.38471825E-03 
    1    5   -0.82216667E-03  0.11938293E-04 
    2    5   -0.98879869E-03 -0.42836228E-05 
    3    5   -0.15173974E-01 -0.80498809E-02 
    4    5    0.92305031E-03  0.15844438E-03 
    5    5    0.10391979E-02  0.27370944E-05 
    6    5   -0.26076155E-03 -0.20118094E-04 
    7    5   -0.59362805E-03 -0.45855318E-05 
    8    5    0.94475610E-04 -0.87050735E-05 
    9    5    0.11392458E-03 -0.47797827E-05 
    1    6   -0.25261271E-02 -0.74275505E-05 
    2    6   -0.11674566E-02  0.28111036E-04 
    3    6    0.20052527E-01  0.10468057E-01 
    4    6   -0.62545977E-03 -0.11105296E-03 
    5    6   -0.17387394E-02  0.80866529E-05 
    6    6    0.33867779E-02 -0.32462933E-05 
    7    6   -0.17853437E-02  0.79027120E-06 
    8    6   -0.91147494E-03  0.25296441E-04 
    9    6   -0.14272933E-02  0.11544722E-04 
    1    7   -0.11857855E-02  0.16416304E-04 
    2    7   -0.16557090E-02  0.73219723E-04 
    3    7    0.23914859E-01  0.12352521E-01 
    4    7   -0.16244073E-02 -0.26131576E-03 
    5    7    0.34297180E-04  0.19556245E-04 
    6    7    0.14544851E-02 -0.16234175E-04 
    7    7    0.47752669E-03  0.11403113E-04 
    8    7   -0.33649612E-03  0.27359163E-05 
    9    7   -0.12932205E-03  0.22074835E-04 
    1    8   -0.12712343E-02  0.33517767E-05 
    2    8    0.16408197E-02  0.23008203E-04 
    3    8   -0.18075487E-01 -0.99736204E-02 
    4    8   -0.18249281E-02 -0.31122428E-03 
    5    8    0.68445285E-03  0.17817480E-04 
    6    8   -0.10470152E-02 -0.37966038E-04 
    7    8   -0.46907567E-03 -0.22151191E-04 
    8    8    0.72498390E-03  0.30778354E-05 
    9    8    0.17588548E-03  0.40380199E-05 
    1    9   -0.19592614E-03  0.58942934E-05 
    2    9    0.27991947E-03  0.11998437E-04 
    3    9    0.14658829E-01  0.77486183E-02 
    4    9   -0.97336571E-03 -0.14991650E-03 
    5    9   -0.15421927E-02  0.81107932E-05 
    6    9    0.23133224E-02  0.69136762E-05 
    7    9    0.24787677E-02  0.12242813E-04 
    8    9   -0.29489509E-03  0.23801609E-05 
    9    9    0.22897226E-02  0.10109562E-04 

   -3    1    0
    1    1    0.16114851E-02 -0.37470960E-05 
    2    1   -0.37386342E-02 -0.14186474E-03 
    3    1    0.14544303E+00  0.77492188E-01 
    4    1    0.47777887E-03  0.35918058E-04 
    5    1    0.10253679E-02 -0.70919316E-04 
    6    1    0.28653419E-02  0.73138072E-04 
    7    1   -0.51813996E-02 -0.32438265E-04 
    8    1   -0.41930710E-02  0.26453705E-04 
    9    1   -0.37170875E-02 -0.85059907E-04 
    1    2   -0.82641549E-03 -0.25996623E-04 
    2    2   -0.74917381E-03  0.42587365E-04 
    3    2   -0.55499354E-01 -0.30217768E-01 
    4    2    0.35524860E-02  0.64179137E-03 
    5    2   -0.27140586E-02 -0.24601033E-04 
    6    2    0.81254433E-03 -0.73173715E-05 
    7    2    0.26478734E-02  0.36204608E-04 
    8    2    0.14974950E-02 -0.84312895E-05 
    9    2    0.50004915E-02  0.78626838E-04 
    1    3   -0.30685768E-02  0.15890903E-02 
    2    3    0.40156113E-02 -0.22127373E-02 
    3    3   -0.16603072E-03 -0.31012650E-05 
    4    3   -0.14210540E-02  0.45542645E-03 
    5    3    0.23599139E-02 -0.12591601E-02 
    6    3   -0.83116497E-05  0.83579039E-05 
    7    3    0.50550202E-04 -0.40717868E-04 
    8    3    0.95358203E-03 -0.49333575E-03 
    9    3   -0.69469582E-03  0.35350248E-03 
    1    4    0.38559186E-02 -0.59576364E-03 
    2    4    0.19202835E-02 -0.39168511E-03 
    3    4    0.32330596E-01  0.10711272E-01 
    4    4   -0.52750371E-02  0.18964340E-06 
    5    4    0.28676007E-02 -0.50991715E-03 
    6    4   -0.19640260E-02  0.31675604E-03 
    7    4   -0.95464247E-03  0.14709246E-03 
    8    4   -0.15263315E-02  0.26070923E-03 
    9    4   -0.31796353E-02  0.48364128E-03 
    1    5    0.48512138E-03 -0.17070633E-06 
    2    5    0.16355787E-02 -0.42017307E-04 
    3    5   -0.68358575E-02 -0.36287181E-02 
    4    5    0.49205102E-03  0.83305453E-04 
    5    5   -0.63335612E-03 -0.10403119E-04 
    6    5   -0.13791039E-02 -0.91185506E-05 
    7    5   -0.67510437E-03 -0.14344545E-04 
    8    5    0.57356559E-03 -0.13578240E-04 
    9    5    0.59210889E-03 -0.56592559E-05 
    1    6   -0.38999250E-03 -0.25152797E-04 
    2    6   -0.18558022E-02  0.77883801E-04 
    3    6   -0.29617013E-01 -0.15450335E-01 
    4    6    0.11932176E-02  0.17911213E-03 
    5    6   -0.80561662E-03  0.22485310E-04 
    6    6    0.92323047E-03 -0.41108529E-05 
    7    6    0.17626203E-02  0.62008984E-05 
    8    6    0.69676880E-03 -0.74375727E-05 
    9    6    0.12257401E-02  0.10902678E-04 
    1    7   -0.11268057E-02  0.11255435E-04 
    2    7   -0.17230816E-03  0.34971342E-04 
    3    7   -0.21467102E-02 -0.93915506E-03 
    4    7   -0.40700147E-03 -0.69539817E-04 
    5    7    0.35088264E-03  0.16402778E-04 
    6    7   -0.16976541E-03  0.97215189E-06 
    7    7    0.43266306E-03 -0.78514678E-05 
    8    7    0.43559861E-03 -0.16375082E-04 
    9    7   -0.24548337E-03  0.11324354E-04 
    1    8    0.60352620E-03  0.28989239E-04 
    2    8    0.51385021E-03  0.10119716E-04 
    3    8    0.27323930E-02  0.14879777E-02 
    4    8    0.49001445E-03  0.11327025E-03 
    5    8    0.23769022E-03  0.87318185E-05 
    6    8   -0.20808845E-03 -0.11285525E-04 
    7    8   -0.13592765E-03 -0.42222763E-05 
    8    8   -0.37333795E-03 -0.64581835E-07 
    9    8    0.84390255E-04  0.52802502E-05 
    1    9   -0.23173894E-03 -0.45610655E-06 
    2    9    0.67103405E-03 -0.36170349E-04 
    3    9    0.10783088E-01  0.56796753E-02 
    4    9    0.36068795E-03  0.53624378E-04 
    5    9    0.28017264E-03 -0.10131665E-04 
    6    9    0.49024243E-04  0.20186818E-05 
    7    9    0.12144737E-03 -0.22081140E-05 
    8    9   -0.51784216E-03  0.88830912E-05 
    9    9   -0.63522260E-03 -0.41300446E-05 

   -3    1    1
    1    1    0.10165168E-01 -0.91854990E-06 
    2    1   -0.12027158E-02 -0.67365432E-04 
    3    1    0.67545558E-02  0.33467947E-02 
    4    1   -0.48221317E-03 -0.16215774E-03 
    5    1    0.50510546E-03 -0.41288105E-04 
    6    1   -0.28522193E-02 -0.16167984E-04 
    7    1   -0.19047671E-03  0.18219428E-04 
    8    1    0.40328594E-04 -0.12184493E-04 
    9    1   -0.26704930E-02 -0.57755883E-04 
    1    2    0.53467765E-03 -0.19000822E-04 
    2    2    0.27649603E-02  0.18115530E-04 
    3    2   -0.10924897E-03  0.82782520E-04 
    4    2   -0.39802183E-04 -0.22570774E-04 
    5    2    0.17625256E-02  0.17904247E-04 
    6    2   -0.14662899E-02 -0.30288618E-04 
    7    2    0.51675965E-04 -0.16628060E-04 
    8    2   -0.25201313E-04  0.48163222E-05 
    9    2    0.22093992E-03 -0.32969451E-05 
    1    3    0.91866345E-03 -0.53681447E-03 
    2    3   -0.61544198E-03  0.31242150E-03 
    3    3    0.19727891E-02 -0.11102797E-04 
    4    3    0.52158777E-03 -0.20631579E-03 
    5    3    0.35344913E-02 -0.18581494E-02 
    6    3   -0.22872268E-02  0.11937376E-02 
    7    3    0.13473285E-02 -0.70303965E-03 
    8    3    0.84626309E-03 -0.44041946E-03 
    9    3    0.87360926E-03 -0.45159428E-03 
    1    4   -0.79372764E-03  0.17275639E-03 
    2    4    0.90374959E-03 -0.15739138E-03 
    3    4    0.14391351E-01  0.47687781E-02 
    4    4    0.43112777E-02 -0.24193051E-04 
    5    4   -0.46377844E-03  0.63452476E-04 
    6    4    0.15344130E-02 -0.24935423E-03 
    7    4   -0.19881427E-02  0.31364303E-03 
    8    4   -0.45324815E-03  0.65987690E-04 
    9    4    0.76534044E-03 -0.14756457E-03 
    1    5    0.30861191E-02 -0.20816849E-04 
    2    5    0.12583263E-02 -0.22372381E-04 
    3    5    0.24347125E-02  0.12546785E-02 
    4    5   -0.17615286E-02 -0.29127490E-03 
    5    5    0.63105023E-03 -0.67482958E-05 
    6    5   -0.13481827E-03 -0.22908074E-05 
    7    5    0.15897244E-04 -0.12813514E-05 
    8    5   -0.37816312E-03  0.79535582E-05 
    9    5    0.17318464E-03 -0.51419403E-05 
    1    6   -0.39563743E-02  0.13300561E-04 
    2    6   -0.82189307E-03  0.46838874E-04 
    3    6   -0.68664741E-02 -0.34969362E-02 
    4    6    0.59024388E-03  0.85270800E-04 
    5    6    0.26078036E-03  0.14194203E-04 
    6    6    0.23917268E-03  0.55875302E-05 
    7    6    0.58139853E-03  0.27744922E-05 
    8    6    0.61817349E-03 -0.94831321E-05 
    9    6    0.47694759E-03  0.11889600E-04 
    1    7   -0.80213126E-03  0.13173222E-04 
    2    7    0.21594923E-03  0.13895411E-04 
    3    7   -0.71795701E-03 -0.31100560E-03 
    4    7    0.73908513E-04  0.10129433E-04 
    5    7    0.15272742E-03  0.91090457E-05 
    6    7    0.90477392E-04 -0.12426498E-05 
    7    7    0.58540364E-03 -0.20371728E-05 
    8    7   -0.11084862E-03  0.38644907E-05 
    9    7   -0.46961963E-03  0.12082377E-04 
    1    8   -0.79641944E-03 -0.17260555E-05 
    2    8    0.97569364E-03 -0.32351367E-05 
    3    8    0.68611595E-03  0.37134147E-03 
    4    8    0.52397103E-03  0.11158726E-03 
    5    8   -0.61522803E-03 -0.10413399E-04 
    6    8    0.74298314E-03  0.12449344E-04 
    7    8   -0.44122298E-03 -0.12072196E-04 
    8    8    0.25091245E-03 -0.11633746E-06 
    9    8    0.55327209E-03  0.13862314E-04 
    1    9   -0.10980552E-02  0.11009071E-04 
    2    9   -0.10751001E-03 -0.16852515E-04 
    3    9    0.16518621E-02  0.84538918E-03 
    4    9   -0.56588251E-03 -0.10001937E-03 
    5    9    0.76872871E-04 -0.90526871E-05 
    6    9    0.55480871E-03 -0.16548298E-05 
    7    9   -0.17541531E-03  0.81719024E-06 
    8    9    0.32465757E-03 -0.33148481E-05 
    9    9   -0.19017970E-03 -0.77930947E-05 

   -3    2   -4
    1    1    0.43751851E-02  0.10780609E-04 
    2    1   -0.19587232E-02  0.57680802E-05 
    3    1    0.52940979E-04  0.55877967E-04 
    4    1   -0.93715939E-03 -0.22714748E-03 
    5    1    0.79330254E-03 -0.79665889E-05 
    6    1   -0.12942623E-02  0.15916602E-04 
    7    1    0.36807179E-03  0.36149441E-05 
    8    1    0.51479338E-03 -0.13482697E-04 
    9    1   -0.21173540E-02 -0.19789725E-04 
    1    2    0.42246368E-03  0.46330092E-04 
    2    2    0.20564158E-02 -0.18321286E-04 
    3    2   -0.70130225E-03 -0.31183167E-03 
    4    2    0.27345259E-02  0.45309387E-03 
    5    2   -0.95307853E-04  0.18560700E-04 
    6    2   -0.55838159E-03 -0.16156460E-04 
    7    2    0.16370340E-02  0.28284965E-04 
    8    2    0.60685016E-03 -0.53383100E-06 
    9    2   -0.70799410E-04  0.13392157E-04 
    1    3    0.19019601E-03 -0.71200439E-04 
    2    3    0.24673328E-02 -0.13370770E-02 
    3    3    0.27476743E-02 -0.91130790E-07 
    4    3    0.29434375E-02 -0.10004100E-02 
    5    3    0.50305047E-03 -0.21636091E-03 
    6    3   -0.13596136E-02  0.68906719E-03 
    7    3    0.20276901E-02 -0.10544131E-02 
    8    3    0.90440405E-03 -0.51904894E-03 
    9    3    0.66740444E-03 -0.33578819E-03 
    1    4    0.85927354E-03 -0.11290730E-03 
    2    4    0.16816260E-02 -0.34979805E-03 
    3    4   -0.21864891E-02 -0.70681935E-03 
    4    4    0.10942721E-01 -0.15760867E-04 
    5    4   -0.22537134E-03  0.31474759E-04 
    6    4   -0.74256330E-03  0.13055866E-03 
    7    4   -0.34243808E-02  0.54044361E-03 
    8    4    0.14047156E-03 -0.23264434E-04 
    9    4    0.20355787E-02 -0.35116261E-03 
    1    5    0.91155567E-03  0.59248363E-05 
    2    5    0.17697935E-02 -0.70478571E-05 
    3    5    0.10715038E-02  0.58807538E-03 
    4    5   -0.25479975E-02 -0.40677023E-03 
    5    5   -0.99262254E-04  0.62645884E-05 
    6    5   -0.20318854E-03 -0.60557364E-05 
    7    5    0.60366495E-03  0.68482347E-06 
    8    5   -0.35088229E-03  0.70644167E-05 
    9    5    0.33188012E-05  0.76333208E-05 
    1    6   -0.69103839E-03 -0.10445881E-04 
    2    6    0.89431887E-03  0.11406169E-04 
    3    6   -0.65028307E-03 -0.32779335E-03 
    4    6   -0.53033463E-03 -0.72174532E-04 
    5    6   -0.54155059E-03  0.77101644E-05 
    6    6    0.54989521E-03 -0.13701981E-05 
    7    6    0.15458198E-03  0.22695137E-05 
    8    6    0.15555249E-03 -0.35810136E-05 
    9    6    0.12312590E-03  0.79776861E-05 
    1    7    0.13309432E-02 -0.31331765E-04 
    2    7    0.23276298E-02 -0.24484597E-04 
    3    7    0.20548452E-02  0.10938062E-02 
    4    7   -0.46312278E-02 -0.73838770E-03 
    5    7    0.39402345E-03  0.58799671E-05 
    6    7    0.66629634E-03 -0.57475450E-05 
    7    7    0.38533002E-03  0.51410184E-05 
    8    7   -0.51806069E-03  0.18964092E-04 
    9    7    0.28882538E-03  0.66253223E-05 
    1    8   -0.51862099E-03 -0.39521779E-05 
    2    8    0.66324781E-03 -0.91870847E-05 
    3    8   -0.50833209E-03 -0.28817997E-03 
    4    8    0.59472236E-03  0.11999138E-03 
    5    8   -0.61233348E-03 -0.15377488E-04 
    6    8    0.42749976E-03  0.45615380E-05 
    7    8   -0.78318226E-03 -0.24609781E-04 
    8    8    0.26433993E-03  0.36630719E-06 
    9    8    0.60186413E-03  0.10779482E-04 
    1    9    0.71734003E-03  0.45163914E-05 
    2    9    0.37477729E-03 -0.49426785E-05 
    3    9   -0.19465359E-03 -0.10594536E-03 
    4    9    0.10422385E-02  0.15881251E-03 
    5    9    0.15105427E-03  0.10144952E-04 
    6    9    0.15115505E-04  0.16209077E-07 
    7    9   -0.13732693E-03  0.47557143E-06 
    8    9    0.33187793E-03 -0.51014477E-05 
    9    9    0.67405910E-03  0.42170984E-05 

   -3    2   -3
    1    1   -0.50702677E-02  0.23631252E-04 
    2    1   -0.33099574E-02  0.62273051E-04 
    3    1   -0.11997770E-01 -0.63014875E-02 
    4    1    0.39676635E-02  0.62122047E-03 
    5    1   -0.67208913E-03 -0.74592025E-05 
    6    1    0.13876739E-02  0.32033815E-04 
    7    1   -0.43045708E-02 -0.31710978E-04 
    8    1    0.17411436E-02 -0.35989054E-04 
    9    1    0.93772943E-03  0.63650718E-05 
    1    2   -0.20157214E-03  0.37006409E-04 
    2    2    0.88156607E-03 -0.65839516E-04 
    3    2    0.44196493E-02  0.23940724E-02 
    4    2   -0.81039855E-03 -0.15117589E-03 
    5    2    0.15230482E-02  0.44474471E-04 
    6    2    0.24589023E-03 -0.16431355E-04 
    7    2    0.17186365E-02  0.39861128E-04 
    8    2   -0.21296850E-03  0.66808032E-05 
    9    2   -0.73532100E-04  0.87565326E-05 
    1    3    0.32209086E-03 -0.18261405E-03 
    2    3    0.40468435E-02 -0.21850111E-02 
    3    3    0.10519571E-02 -0.39200471E-05 
    4    3   -0.22698219E-02  0.76069914E-03 
    5    3    0.37540054E-03 -0.17055508E-03 
    6    3    0.27655117E-03 -0.17434677E-03 
    7    3   -0.25114566E-03  0.12831626E-03 
    8    3    0.49006433E-03 -0.28914423E-03 
    9    3    0.13072267E-02 -0.67138439E-03 
    1    4    0.39191478E-04  0.18419843E-04 
    2    4   -0.26381997E-01  0.47272694E-02 
    3    4   -0.81213016E-02 -0.27863235E-02 
    4    4    0.33147136E-02 -0.41614755E-05 
    5    4    0.41654431E-02 -0.71398088E-03 
    6    4   -0.86279133E-04  0.25237024E-04 
    7    4   -0.41525997E-02  0.64254491E-03 
    8    4    0.34478052E-02 -0.64771800E-03 
    9    4   -0.20446090E-02  0.32987862E-03 
    1    5   -0.11952838E-04  0.16000233E-04 
    2    5   -0.13470725E-02 -0.18668289E-04 
    3    5    0.45062874E-02  0.24000035E-02 
    4    5   -0.33078248E-03 -0.32935966E-04 
    5    5   -0.42072683E-04  0.64361782E-05 
    6    5    0.49018275E-03 -0.38598558E-05 
    7    5    0.15015980E-02  0.18707579E-04 
    8    5    0.46289918E-04  0.33699516E-05 
    9    5   -0.52713433E-03  0.32809253E-05 
    1    6    0.63072641E-03 -0.21107401E-04 
    2    6    0.28207823E-02 -0.13159479E-04 
    3    6    0.33982041E-02  0.17899459E-02 
    4    6   -0.68993857E-03 -0.10888761E-03 
    5    6   -0.51757926E-03  0.92491149E-05 
    6    6   -0.38971782E-03 -0.31188150E-05 
    7    6    0.11863972E-02 -0.63042727E-05 
    8    6   -0.10843425E-02  0.28962655E-04 
    9    6    0.25158612E-03  0.99080098E-05 
    1    7   -0.22481245E-03 -0.60104052E-05 
    2    7    0.18590241E-02 -0.35884864E-04 
    3    7    0.47307609E-02  0.24832531E-02 
    4    7   -0.12923712E-02 -0.21738007E-03 
    5    7   -0.88679129E-04  0.18318063E-04 
    6    7    0.17729325E-02 -0.56144828E-05 
    7    7    0.12603212E-02  0.11806431E-04 
    8    7    0.14776802E-03  0.65372863E-05 
    9    7    0.29123332E-03  0.46487615E-05 
    1    8   -0.44841880E-03 -0.19214974E-05 
    2    8    0.71753577E-03  0.43549532E-05 
    3    8    0.92174526E-03  0.50568301E-03 
    4    8   -0.62703802E-03 -0.11010222E-03 
    5    8    0.35439143E-03  0.30562457E-05 
    6    8    0.78184803E-04  0.64876246E-06 
    7    8    0.34310312E-03  0.35995139E-05 
    8    8   -0.35268527E-03  0.16394182E-05 
    9    8   -0.12651234E-03 -0.25122684E-05 
    1    9   -0.16754397E-02  0.15583477E-04 
    2    9    0.95239017E-03  0.21337633E-05 
    3    9   -0.15001823E-02 -0.78769535E-03 
    4    9   -0.54962597E-03 -0.86536557E-04 
[...]
    7    7    0.64237541E-04 -0.23389208E-06  0.12225022E-04 -0.10125407E-05 -0.23410369E-05  0.53346767E-06
    8    7    0.41206554E-04  0.95516078E-06 -0.47852086E-04 -0.62333548E-06  0.60624302E-04 -0.11775061E-06
    9    7    0.95623650E-05  0.48980207E-05 -0.16105772E-04 -0.19195612E-05 -0.71107148E-04  0.33889265E-05
    1    8    0.17721242E-03  0.73421996E-06 -0.19016322E-03  0.14453416E-04  0.11704008E-03 -0.22029478E-06
    2    8   -0.80693784E-04 -0.36986998E-05  0.26777406E-03  0.23838061E-04 -0.65219478E-04  0.34306191E-05
    3    8    0.16586300E-03  0.86688609E-04 -0.45129087E-03 -0.23140026E-03  0.28399636E-04  0.27305671E-04
    4    8    0.25327934E-04  0.56784986E-06 -0.20355355E-04  0.13924035E-04 -0.35884328E-04 -0.12819223E-04
    5    8   -0.22321709E-04 -0.16613125E-05  0.56772610E-04  0.83766458E-05  0.43596556E-04  0.31156775E-05
    6    8   -0.46809907E-04 -0.55108798E-07  0.22041457E-04 -0.40521058E-05 -0.58869464E-04 -0.21257865E-06
    7    8   -0.19156565E-04  0.55554788E-06 -0.16162791E-03 -0.82810779E-05 -0.14630602E-04  0.22815158E-05
    8    8   -0.40476587E-05  0.10719488E-06 -0.12831233E-04  0.29190285E-06  0.14651210E-04 -0.53980902E-07
    9    8   -0.26278585E-04 -0.17512226E-05  0.45063998E-04  0.75901422E-05 -0.21319444E-04  0.12575966E-05
    1    9    0.58788507E-04 -0.23496023E-04  0.91334813E-06  0.76133980E-05 -0.32897702E-03  0.34273167E-05
    2    9    0.67275081E-04 -0.18931196E-04 -0.39320145E-04 -0.70299810E-05 -0.71776610E-04  0.26316167E-04
    3    9   -0.32006578E-03 -0.18770705E-03 -0.17538686E-03 -0.11390972E-03 -0.93718659E-04 -0.36279741E-04
    4    9    0.18868104E-03  0.10960466E-04  0.29674965E-03  0.50880008E-04 -0.39533597E-05  0.39710420E-05
    5    9    0.23720553E-04 -0.54032663E-05 -0.36228450E-04 -0.32318207E-05 -0.11932909E-03  0.65242897E-05
    6    9   -0.58891677E-04  0.45502316E-05 -0.28557223E-04 -0.13098019E-05  0.33538472E-04  0.66337100E-06
    7    9    0.29383435E-04  0.45677023E-05  0.31097921E-04 -0.19782502E-05  0.64053067E-04 -0.15959235E-05
    8    9    0.14783479E-04 -0.18773603E-05  0.64135436E-04  0.13712083E-05 -0.68761980E-04  0.12234819E-05
    9    9    0.23779526E-04 -0.11429067E-05 -0.12105130E-04  0.16783025E-06 -0.36784821E-04  0.86219690E-07

    4   -1    2
    1    1   -0.79250847E-03  0.31413259E-05  0.14073518E-03 -0.99657927E-06  0.46567602E-03  0.10501732E-05
    2    1   -0.29272833E-03 -0.20925460E-04 -0.66058808E-03  0.26396000E-05  0.10837291E-03 -0.37595511E-04
    3    1    0.29033216E-03  0.15650273E-03 -0.10447527E-02 -0.53195029E-03  0.20495828E-04 -0.60780728E-04
    4    1   -0.80529860E-03 -0.21341112E-03 -0.63344911E-03 -0.17294477E-03  0.23815778E-03 -0.47513174E-04
    5    1    0.57730828E-04 -0.47667201E-05  0.11517959E-03 -0.10747518E-06  0.10269528E-03 -0.21573407E-04
    6    1    0.15123109E-03  0.17926689E-04 -0.86396093E-04  0.16891618E-04 -0.11578584E-03  0.26707144E-04
    7    1    0.25410446E-03  0.21510051E-04  0.15226745E-03  0.24045992E-04 -0.36015607E-04  0.19587113E-04
    8    1   -0.88820182E-04  0.19363813E-05  0.30840889E-04  0.95910963E-06  0.27527568E-04 -0.47034312E-05
    9    1   -0.63652806E-04 -0.39800128E-05  0.16587952E-03  0.23310964E-05 -0.63596865E-04 -0.17302846E-04
    1    2    0.12215049E-03 -0.66094384E-04  0.20189781E-03 -0.16226510E-04 -0.12044477E-02 -0.11677845E-04
    2    2    0.48486982E-03 -0.73835783E-05 -0.11102862E-03 -0.23667338E-05 -0.85050402E-04  0.95555240E-06
    3    2    0.19375428E-03  0.27302753E-04 -0.11188251E-02 -0.67832452E-03 -0.78703008E-04 -0.11035281E-04
    4    2    0.12536959E-03 -0.33693649E-04  0.29097082E-03  0.15176744E-04 -0.17375413E-03 -0.11361218E-04
    5    2    0.14986527E-03 -0.17998747E-04 -0.59674646E-04 -0.13563316E-04 -0.12921258E-03  0.18207426E-04
    6    2    0.16840411E-03  0.16722014E-04 -0.18415982E-03  0.18291821E-05  0.32176232E-03  0.89216324E-05
    7    2   -0.71000387E-05  0.14169773E-04 -0.22934407E-03  0.35682351E-05 -0.69097440E-04 -0.87864458E-05
    8    2    0.15976018E-04  0.57088467E-05  0.80607801E-05  0.89962221E-05 -0.86693794E-04  0.48737083E-05
    9    2    0.10601849E-03 -0.17712985E-04 -0.15721447E-04 -0.16858987E-04  0.37195130E-04  0.16421372E-04
    1    3   -0.15011541E-03  0.18581464E-04  0.44485553E-03 -0.23433996E-03  0.40038225E-03 -0.24177376E-03
    2    3    0.97670827E-04 -0.79946845E-04  0.17647866E-03 -0.14319065E-03 -0.62433630E-03  0.44694088E-03
    3    3    0.47068520E-03  0.30520116E-05 -0.28035684E-03 -0.48621888E-05 -0.19250141E-03 -0.19832402E-05
    4    3    0.32360380E-04 -0.66544946E-04  0.43900785E-03 -0.17176093E-03 -0.60311641E-03  0.19014316E-03
    5    3    0.65459227E-04 -0.39454095E-04  0.21558130E-03 -0.12353492E-03  0.14119604E-03 -0.48578352E-04
    6    3    0.92228279E-04 -0.33797923E-04 -0.20451562E-03  0.10846433E-03 -0.19481532E-03  0.11208007E-03
    7    3    0.21131501E-04  0.62850417E-05 -0.10834395E-03  0.60495273E-04  0.14437250E-03 -0.73591106E-04
    8    3    0.91018772E-05  0.24854635E-05  0.64937157E-04 -0.22652592E-04  0.13654815E-03 -0.67270941E-04
    9    3    0.25757022E-04 -0.23210388E-04  0.84255402E-04 -0.60655994E-04  0.74092608E-04 -0.22421236E-04
    1    4   -0.36518031E-03  0.11206360E-04  0.26798173E-04 -0.48120516E-04 -0.71742770E-03  0.39716682E-04
    2    4    0.39092350E-03 -0.12285518E-03 -0.48066169E-03  0.84756893E-04  0.34975613E-03 -0.72854838E-04
    3    4   -0.38796596E-03 -0.17348461E-03 -0.92264261E-03 -0.28774338E-03 -0.36081705E-03 -0.15669504E-03
    4    4    0.12679560E-03 -0.58618068E-05  0.81423508E-04  0.33076858E-05 -0.47300960E-04  0.77874725E-06
    5    4   -0.74853100E-04 -0.32783408E-05  0.67698032E-04 -0.11852107E-04 -0.42798661E-04 -0.81719006E-05
    6    4    0.10426385E-03 -0.58823785E-05 -0.82936843E-04  0.28834805E-04  0.21707354E-03 -0.14585561E-04
    7    4    0.36573202E-04  0.62139589E-05 -0.18968738E-04  0.23618584E-04  0.50199766E-04  0.36766550E-05
    8    4    0.15131339E-03 -0.26907220E-04  0.29304971E-03 -0.53157221E-04  0.11744720E-03 -0.25897804E-04
    9    4   -0.51460589E-05 -0.10977008E-04 -0.10744275E-03  0.20171357E-04 -0.37021224E-04 -0.24329178E-05
    1    5   -0.14677682E-03 -0.21172510E-04  0.10994461E-03 -0.61615683E-05 -0.26484630E-04 -0.11287655E-04
    2    5   -0.16142272E-03 -0.68912596E-05 -0.71632819E-04 -0.17204497E-04 -0.93457064E-04  0.26183319E-04
    3    5    0.10471478E-03  0.49390203E-04 -0.14024110E-03 -0.98796834E-04 -0.22911205E-04 -0.42873373E-05
    4    5   -0.12407878E-03 -0.42768920E-04  0.65856645E-04 -0.30956200E-05 -0.10271584E-03 -0.25548265E-04
    5    5    0.16575189E-04  0.26499841E-07 -0.15330240E-04  0.60761793E-06  0.80907330E-05  0.51547564E-06
    6    5   -0.22853733E-04  0.55286539E-05  0.15841032E-04  0.21802225E-05  0.26863667E-06  0.42778499E-05
    7    5    0.76148061E-04  0.61969216E-05  0.18524401E-04  0.33025836E-05 -0.58607211E-04  0.13255737E-05
    8    5   -0.15397741E-04  0.18084097E-05  0.66701387E-04  0.17317744E-05  0.16866605E-05  0.10880857E-05
    9    5   -0.27631555E-04 -0.27529241E-05  0.25875167E-04 -0.57556777E-05 -0.45561384E-04  0.34251371E-05
    1    6    0.20459719E-03  0.18804450E-04  0.50201818E-04  0.11484386E-04 -0.22319966E-03  0.33053395E-04
    2    6    0.23398408E-03  0.73931402E-05  0.23713967E-03 -0.43479853E-05 -0.22030325E-03  0.21963038E-04
    3    6    0.16246292E-03  0.86559954E-04  0.18838253E-03  0.90606947E-04 -0.50899143E-04  0.52629187E-05
    4    6    0.36890599E-03  0.85870309E-04  0.22741419E-03  0.52509324E-04 -0.68728485E-04  0.14278267E-04
    5    6    0.53851370E-05  0.25504394E-05  0.10589643E-04  0.32879422E-06  0.15482744E-04  0.88143397E-05
    6    6   -0.49433943E-04  0.52637966E-06  0.93748579E-05  0.67767714E-06 -0.20033284E-05 -0.11330546E-05
    7    6   -0.93990144E-04 -0.67720658E-05 -0.13831282E-04 -0.55488049E-05  0.10816764E-03 -0.56143887E-05
    8    6   -0.64980770E-04  0.14980296E-05 -0.69316870E-04  0.15677707E-05  0.47989731E-04 -0.15368632E-06
    9    6    0.53810112E-04  0.22068497E-05  0.10747569E-03 -0.63107691E-06  0.60509258E-05  0.72301493E-05
    1    7    0.15878848E-03  0.13970586E-04 -0.97777963E-04  0.14829677E-04 -0.10158961E-03  0.31157757E-04
    2    7   -0.18417237E-03  0.18217143E-04  0.13154836E-03 -0.50192645E-05 -0.46795448E-04  0.40501932E-05
    3    7    0.34823831E-04  0.33897368E-04 -0.66008041E-04 -0.43681393E-04 -0.11445980E-03 -0.47703669E-04
    4    7    0.32951280E-04  0.19586900E-04 -0.21483736E-04  0.15227501E-04  0.92293029E-04  0.36765563E-04
    5    7   -0.40518522E-04  0.49301821E-05  0.30011547E-04 -0.55319132E-06 -0.49224194E-04  0.43466499E-05
    6    7   -0.56743720E-04 -0.28170475E-05  0.60828067E-04 -0.48816637E-05 -0.15954108E-04 -0.72068513E-05
    7    7    0.68144178E-05 -0.35589492E-06  0.13809105E-04 -0.70657023E-06 -0.49492561E-05  0.72942089E-06
    8    7    0.62950728E-04 -0.23184282E-05  0.95203041E-05 -0.49280843E-06  0.43646910E-04 -0.37726722E-06
    9    7   -0.99887345E-04  0.39319371E-05  0.64955162E-04 -0.12032122E-05 -0.42566710E-04  0.31299421E-05
    1    8    0.52445992E-04 -0.38810053E-05 -0.61561049E-04  0.17706336E-04  0.82753734E-04 -0.18249983E-05
    2    8    0.30776720E-04 -0.57112744E-05 -0.83662848E-04  0.20150429E-04 -0.25659932E-03  0.27521124E-05
    3    8   -0.27659973E-03 -0.16104412E-03 -0.19684786E-03 -0.92601877E-04  0.68417496E-04  0.47541396E-04
    4    8   -0.10504615E-03 -0.25794830E-04 -0.16814453E-04  0.16239850E-04 -0.44418691E-04 -0.14105096E-04
    5    8    0.34515245E-04 -0.12422823E-05  0.67096194E-05  0.71035849E-05  0.71940971E-04  0.36871987E-05
    6    8   -0.16314603E-04  0.12162180E-05 -0.91550782E-04 -0.71883494E-05 -0.46323979E-04  0.25147379E-06
    7    8    0.35311331E-05  0.20203952E-05 -0.41009639E-04 -0.56974810E-05  0.82840273E-04  0.45763566E-05
    8    8    0.65938058E-05 -0.38285324E-07 -0.14861190E-04  0.36867151E-06 -0.12586840E-04 -0.29959354E-06
    9    8   -0.21449383E-04 -0.20932425E-05  0.87530271E-04  0.78095565E-05  0.16969307E-04  0.22987807E-05
    1    9   -0.71500621E-04 -0.21275134E-04  0.90167646E-04 -0.52021687E-05 -0.29614994E-03  0.10733541E-05
    2    9    0.97423352E-04 -0.24784962E-04 -0.85554243E-04 -0.15811270E-04  0.80077385E-04  0.28216683E-04
    3    9   -0.16546433E-03 -0.11379807E-03 -0.20365070E-03 -0.12916618E-03  0.35304892E-04  0.26462157E-04
    4    9   -0.12668617E-03 -0.39918779E-04  0.11781525E-04 -0.87373651E-05 -0.23089657E-03 -0.29325022E-04
    5    9    0.70720138E-04 -0.74436060E-05  0.14211664E-04 -0.42297548E-05 -0.10515195E-03  0.56001200E-05
    6    9   -0.36148571E-04  0.43172407E-05 -0.54330893E-04  0.14782151E-05  0.13157567E-03  0.11512295E-05
    7    9   -0.25917039E-04  0.46830603E-05  0.26632423E-05  0.27134835E-05  0.14936140E-04 -0.28499663E-05
    8    9    0.84454096E-04 -0.14135277E-06  0.78945430E-04  0.11199210E-05 -0.61040529E-05  0.11538424E-05
    9    9    0.47314056E-04 -0.89062330E-06  0.22498419E-04 -0.25797992E-06 -0.38169854E-04 -0.99033985E-06

    4   -1    3
    1    1   -0.25033650E-03  0.36056774E-05 -0.97932033E-04  0.72855853E-06  0.17868997E-03  0.21461136E-05
    2    1   -0.81406875E-04 -0.48962420E-04 -0.41908573E-03  0.37555865E-05  0.13190895E-03 -0.24782367E-04
    3    1   -0.32104740E-03 -0.19263681E-03  0.22868086E-04  0.25062422E-04 -0.31111488E-03 -0.21641336E-03
    4    1    0.20632004E-04 -0.50001132E-04 -0.31721157E-03 -0.94532294E-04  0.10123634E-03 -0.64265452E-04
    5    1    0.11980976E-03 -0.82562597E-05 -0.44623385E-04  0.89149745E-06  0.16741139E-03 -0.18023567E-04
    6    1   -0.92212166E-04  0.64991455E-05  0.21826420E-05  0.85384174E-05 -0.14611912E-04  0.24469241E-04
    7    1    0.11288905E-03  0.13300673E-04  0.15838823E-03  0.16376569E-04 -0.88401353E-04  0.20820666E-04
    8    1    0.97050142E-04 -0.23556486E-05 -0.13104686E-03  0.43585478E-05  0.27960012E-03 -0.69768813E-05
    9    1   -0.54887392E-04 -0.12028604E-04 -0.12154688E-03 -0.17394035E-05 -0.12352079E-03 -0.10281619E-04
    1    2   -0.14538495E-03 -0.49608440E-04  0.48879863E-03 -0.32941410E-05 -0.35722927E-03 -0.17067171E-04
    2    2    0.42643136E-03 -0.36630752E-05  0.94380073E-04 -0.12652953E-05  0.10383771E-03 -0.18807620E-06
    3    2    0.20371285E-04 -0.73482175E-04  0.21494518E-04 -0.65980015E-04  0.60068230E-03  0.40418620E-03
    4    2    0.34450262E-03  0.16503036E-04  0.18008587E-03  0.13799359E-04 -0.62318231E-03 -0.98528789E-04
    5    2    0.85422174E-04 -0.18365831E-04 -0.97434006E-05 -0.96995579E-05 -0.18131355E-03  0.31286612E-04
    6    2    0.87215334E-04  0.83661648E-05 -0.47335072E-04  0.20896261E-05 -0.43835107E-04  0.55393293E-05
    7    2   -0.17426760E-03  0.78575500E-05 -0.12180428E-03  0.57546413E-06  0.19177602E-03 -0.22800063E-05
    8    2    0.13800736E-03 -0.22242674E-05 -0.22948064E-04  0.69600836E-05 -0.22246554E-03  0.63004989E-05
    9    2    0.13239822E-03 -0.19879390E-04  0.55929983E-04 -0.11148044E-04 -0.11479284E-04  0.33128394E-04
    1    3   -0.13171463E-03  0.25339312E-04  0.85270844E-03 -0.43964965E-03 -0.12338938E-02  0.60600451E-03
    2    3    0.13869897E-03 -0.12002098E-03  0.73783381E-04 -0.44160748E-04 -0.17561067E-03  0.24479796E-03
    3    3   -0.76518358E-04  0.32464811E-05  0.75986289E-04 -0.11149963E-05 -0.20173364E-03 -0.83344120E-06
    4    3    0.12010410E-03 -0.78732799E-04  0.61777409E-04 -0.21993778E-04 -0.63996438E-03  0.19465576E-03
    5    3   -0.15383394E-03  0.70932193E-04  0.41399126E-04 -0.28444816E-04  0.23145205E-03 -0.83565613E-04
    6    3    0.14008395E-04  0.48920330E-06 -0.15211710E-03  0.79562305E-04  0.23038442E-03 -0.10398433E-03
    7    3    0.13231213E-04  0.67161192E-05 -0.74564766E-04  0.34621021E-04  0.11285704E-03 -0.55789470E-04
    8    3    0.12890334E-04 -0.88463285E-05  0.99721391E-04 -0.46150786E-04  0.25985385E-03 -0.13660922E-03
    9    3    0.52113004E-04 -0.40592846E-04  0.93872309E-04 -0.55983205E-04 -0.46041808E-03  0.27603640E-03
    1    4    0.42139142E-03 -0.10016689E-03  0.49401666E-05 -0.20999466E-04  0.10703354E-03 -0.10590861E-03
    2    4    0.42714698E-03 -0.15506915E-03 -0.56114861E-04  0.79252041E-05  0.61104944E-03 -0.10472813E-03
    3    4    0.80721713E-04 -0.41381593E-04 -0.24735093E-03 -0.70971478E-04  0.47482158E-04 -0.17334524E-05
    4    4    0.38285000E-03 -0.30270172E-05 -0.11975472E-03  0.42172212E-06 -0.15916106E-03  0.85076782E-06
    5    4   -0.65842157E-04 -0.70906783E-05 -0.59448020E-05  0.10139979E-05 -0.56839490E-04 -0.22999953E-05
    6    4   -0.52113568E-04  0.11686761E-04 -0.17257873E-04  0.10541657E-04 -0.94596922E-04  0.34027864E-04
    7    4   -0.12048657E-03  0.25153996E-04  0.53296649E-04  0.61286510E-05  0.54304095E-05  0.15067135E-04
    8    4   -0.12439858E-03  0.22690906E-04 -0.29937067E-04  0.76015879E-05 -0.18656151E-03  0.30398055E-04
    9    4    0.19607991E-03 -0.52481243E-04 -0.99413229E-04  0.16688504E-04  0.19200496E-03 -0.32863154E-04
    1    5    0.46410691E-04 -0.16252327E-04 -0.10421605E-04 -0.89348927E-06 -0.15911107E-03 -0.12815034E-04
    2    5   -0.20830733E-03 -0.11613967E-04  0.41667429E-04 -0.55515005E-05 -0.24957019E-03  0.40813649E-04
    3    5   -0.12669736E-03 -0.74622143E-04  0.51005061E-04  0.11823089E-05 -0.10831072E-04  0.15451646E-04
    4    5   -0.93414533E-04 -0.32967651E-04  0.99157228E-04  0.10714477E-04  0.29538859E-03  0.39648084E-04
    5    5    0.80633758E-05  0.29054032E-06 -0.21799995E-04  0.83387931E-06 -0.23848689E-04  0.72902666E-06
    6    5   -0.75514809E-04  0.26105524E-05  0.36248513E-04  0.11105561E-05 -0.59928210E-04  0.46477623E-05
    7    5    0.34636855E-04  0.49976015E-05  0.97004802E-05  0.83817034E-06 -0.14234629E-04  0.97367428E-06
    8    5    0.88230192E-04 -0.24207116E-05 -0.69365089E-04  0.38687734E-05  0.10184213E-04  0.14100903E-05
    9    5   -0.11696845E-03 -0.43148575E-05  0.33977873E-04 -0.35416409E-05 -0.12073414E-03  0.84045610E-05
    1    6   -0.19731769E-03  0.16159458E-04 -0.91103878E-04  0.59784614E-05 -0.69069607E-03  0.35696874E-04
    2    6   -0.43672896E-05  0.19308612E-04  0.64504998E-04 -0.11471700E-05  0.23876251E-03  0.85382111E-05
    3    6    0.93125422E-04  0.57675869E-04  0.13814422E-03  0.67102790E-04  0.28113318E-04  0.40289491E-04
    4    6    0.23052134E-03  0.57426108E-04  0.51274140E-04  0.19196035E-04 -0.27609005E-03 -0.20410892E-04
    5    6   -0.78154024E-04  0.40056962E-05 -0.56569784E-04 -0.23447205E-07  0.24524089E-04  0.68152257E-05
    6    6   -0.67596441E-05  0.55114063E-06  0.22790136E-04  0.87002093E-07  0.25163317E-04 -0.36855571E-06
    7    6   -0.13465459E-03 -0.50684499E-05 -0.34528103E-04 -0.37619926E-05  0.14620125E-03 -0.59620011E-05
    8    6    0.95999233E-04 -0.23520435E-05  0.64885142E-04 -0.24833436E-05 -0.17557937E-04  0.13971712E-05
    9    6   -0.30509227E-05  0.46975073E-05 -0.25065581E-04 -0.24550237E-06 -0.29191892E-04  0.52703432E-05
    1    7   -0.64446639E-04  0.98714160E-05 -0.58444753E-04  0.60017492E-05 -0.25764331E-05  0.32013114E-04
    2    7   -0.80923856E-04  0.23314732E-04 -0.36564579E-04 -0.73951356E-07 -0.14435948E-03  0.21601219E-05
    3    7    0.11085385E-03  0.79040104E-04 -0.11801943E-03 -0.68752299E-04 -0.14171676E-03 -0.67618153E-04
    4    7   -0.21480759E-03 -0.24394446E-04  0.58362982E-04  0.20474618E-04 -0.10984864E-03  0.47084433E-05
    5    7    0.43932352E-04  0.53233489E-05 -0.37525808E-04 -0.86189170E-06 -0.23130821E-04  0.32461758E-05
    6    7    0.56337667E-04 -0.10969908E-05 -0.23968904E-04 -0.19177564E-05 -0.67640194E-04 -0.63066299E-05
    7    7    0.12996497E-04 -0.19837859E-06  0.20010348E-04 -0.63492606E-06 -0.24636355E-04  0.54749036E-06
    8    7    0.40188863E-05  0.13560438E-06  0.94982688E-06 -0.89108640E-06 -0.37997474E-04  0.21513171E-05
    9    7   -0.32114402E-04  0.59522872E-05 -0.87262022E-06 -0.50108417E-06 -0.87616647E-04  0.13680909E-05
    1    8   -0.18813780E-04 -0.35293993E-05 -0.17355374E-03  0.14904132E-04 -0.30801940E-03 -0.72717430E-05
    2    8   -0.16886929E-03 -0.52950026E-05 -0.32417413E-03  0.22796479E-04  0.25619338E-04  0.41704095E-05
    3    8    0.48095918E-04  0.19052777E-04  0.34235506E-03  0.20888488E-03  0.69161556E-04  0.47510982E-04
    4    8    0.18206170E-03  0.29300429E-04 -0.26563956E-03 -0.30711612E-04  0.38229834E-05 -0.43895392E-05
    5    8   -0.17076231E-04 -0.19031755E-05 -0.13720677E-03  0.46313276E-05 -0.57575812E-04  0.51659906E-06
    6    8   -0.33800252E-04  0.22636974E-07  0.96096174E-04 -0.17453594E-05  0.55784408E-04  0.27568261E-05
    7    8   -0.31473846E-04  0.46601630E-06  0.10765251E-03 -0.18545650E-05  0.50122023E-04  0.31726468E-05
    8    8    0.13834948E-05  0.42664954E-07 -0.15158814E-05 -0.47819257E-07 -0.51783985E-06 -0.96034052E-07
    9    8   -0.21229446E-04 -0.21040679E-05 -0.14007349E-03  0.34598260E-05 -0.48361292E-04  0.23616272E-06
    1    9   -0.13663325E-03 -0.16205799E-04  0.13822539E-04 -0.24577487E-05  0.48013743E-04 -0.68525152E-05
    2    9    0.22075455E-03 -0.30868703E-04  0.45950789E-04 -0.87542961E-05 -0.13677217E-03  0.45094597E-04
    3    9   -0.48561306E-04 -0.56872831E-04 -0.93029909E-04 -0.73221931E-04  0.38014764E-04  0.42818588E-04
    4    9    0.51475930E-04 -0.71729424E-05 -0.89231314E-06 -0.46531958E-05 -0.10607861E-03 -0.14563284E-04
    5    9    0.71808498E-04 -0.80763457E-05  0.30256143E-04 -0.35837436E-05  0.33490118E-04  0.99376878E-05
    6    9    0.46978511E-04  0.29190185E-05  0.23552792E-04  0.11816117E-05  0.17728911E-04  0.27688634E-05
    7    9   -0.15602638E-04  0.39360700E-05 -0.34031581E-05  0.67785072E-06  0.76585050E-04 -0.15891688E-05
    8    9    0.30147491E-05 -0.32702433E-06 -0.38106643E-05  0.26199010E-05  0.28933942E-04  0.78496873E-06
    9    9    0.22096918E-04 -0.11433223E-05 -0.22076201E-04 -0.17699614E-07  0.18870719E-04 -0.74302209E-06
