 written on  4Aug2023 at 11:52:13 
   1.4349962953939324        1.4349962953939324        1.4349962953939324     
  -1.4349962953939324        1.4349962953939324        1.4349962953939324     
  -1.4349962953939324       -1.4349962953939324        1.4349962953939324     
           9
         259
    2    2    2    1    2    2    2    2    2    2    1    1    2    2    1
    1    1    1    2    2    1    1    1    1    2    2    1    1    2    2
    2    2    1    2    2    1    1    1    1    2    1    1    1    1    1
    1    2    1    1    1    1    1    2    1    1    1    1    1    1    2
    1    1    1    1    2    2    1    2    2    2    2    1    1    1    1
    2    2    1    1    1    1    1    2    1    1    1    1    1    1    1
    1    1    1    1    1    2    1    1    1    1    1    2    2    1    1
    1    1    2    2    2    2    1    1    2    1    1    1    1    1    1
    1    1    1    1    1    1    2    1    1    1    1    1    2    1    1
    1    1    1    1    1    1    1    1    1    1    2    1    1    2    2
    2    2    1    1    1    1    2    2    1    1    1    1    1    2    1
    1    1    1    1    1    1    1    1    1    1    1    2    1    1    1
    1    1    2    2    1    1    1    1    2    2    2    2    1    2    2
    1    1    1    1    2    1    1    1    1    1    1    2    1    1    1
    1    1    2    1    1    1    1    1    1    2    1    1    1    1    2
    2    1    2    2    2    2    1    1    2    2    1    1    1    1    2
    2    1    1    1    1    2    2    1    1    2    2    2    2    2    2
    1    2    2    2

   -4    1   -3
    1    1    0.13804097E-02  0.12781215E-04 
    2    1    0.19969890E-03 -0.12868855E-03 
    3    1   -0.17491031E-02 -0.33354500E-03 
    4    1    0.26443630E-02 -0.21455968E-03 
    5    1    0.66372300E-04  0.14057211E-04 
    6    1   -0.39429577E-03 -0.65372774E-04 
    7    1   -0.11085122E-02 -0.16458005E-03 
    8    1    0.51349440E-03  0.53719596E-04 
    9    1    0.10077101E-02  0.16025608E-03 
    1    2   -0.12629672E-02  0.50363506E-03 
    2    2    0.10753575E-02 -0.36607553E-07 
    3    2    0.19511629E-02 -0.19091323E-03 
    4    2   -0.71935317E-02  0.23908338E-02 
    5    2   -0.13478730E-02  0.39095936E-04 
    6    2    0.17386169E-02 -0.50713745E-04 
    7    2   -0.10951083E-02  0.32856961E-04 
    8    2    0.13807754E-02 -0.10156095E-03 
    9    2   -0.13953905E-02  0.44646420E-04 
    1    3   -0.75982908E-02  0.83333468E-03 
    2    3    0.19038859E-02  0.25272188E-03 
    3    3    0.86526724E-03  0.12852868E-04 
    4    3   -0.17327493E-02  0.58066107E-03 
    5    3   -0.17630619E-02 -0.18338546E-03 
    6    3    0.13724896E-02  0.10324851E-03 
    7    3   -0.13172502E-02 -0.12717803E-03 
    8    3   -0.14239835E-02 -0.61008273E-04 
    9    3   -0.10999240E-02 -0.97146555E-04 
    1    4    0.26704269E-02  0.30736790E-03 
    2    4   -0.17113576E-02 -0.70084083E-03 
    3    4    0.12861530E-03 -0.15095910E-03 
    4    4    0.12969847E-02  0.11661527E-05 
    5    4    0.40830974E-03  0.11674745E-03 
    6    4   -0.64195656E-04 -0.28288764E-04 
    7    4    0.99259695E-03  0.24825632E-03 
    8    4   -0.43774132E-03 -0.97469750E-04 
    9    4   -0.10016166E-02 -0.25572543E-03 
    1    5    0.17219976E-02 -0.27223860E-03 
    2    5   -0.10164967E-02 -0.24786694E-04 
    3    5    0.10250586E-02 -0.12007527E-03 
    4    5    0.14119592E-02 -0.38701395E-03 
    5    5   -0.77481136E-03  0.95675187E-05 
    6    5   -0.10525029E-02  0.19722843E-04 
    7    5   -0.31405541E-03  0.26560893E-05 
    8    5   -0.29732000E-04  0.29118183E-05 
    9    5    0.19749164E-03 -0.17712586E-04 
    1    6   -0.15532924E-02  0.22513422E-03 
    2    6   -0.10494842E-02 -0.34269350E-04 
    3    6    0.10824765E-02 -0.65699975E-04 
    4    6   -0.16783944E-02  0.42464119E-03 
    5    6   -0.11143644E-02 -0.24818575E-04 
    6    6   -0.74311101E-03  0.67870009E-05 
    7    6   -0.19488056E-03  0.12918208E-04 
    8    6   -0.33707971E-04  0.72472260E-05 
    9    6    0.31449820E-03  0.55795659E-05 
    1    7    0.13745450E-02 -0.19358653E-03 
    2    7   -0.40207676E-03 -0.14103590E-04 
    3    7   -0.98026138E-04  0.45614395E-05 
    4    7    0.99856807E-03 -0.26917383E-03 
    5    7   -0.49803373E-03  0.27794657E-04 
    6    7    0.16874255E-03 -0.24510453E-04 
    7    7   -0.65452376E-03  0.52863653E-05 
    8    7   -0.11502847E-04 -0.73726212E-05 
    9    7    0.12177683E-02 -0.27388369E-05 
    1    8   -0.12591681E-02  0.20960689E-03 
    2    8   -0.51053570E-03 -0.19617436E-04 
    3    8    0.44225115E-03 -0.46048063E-04 
    4    8    0.13540882E-02 -0.35730951E-03 
    5    8   -0.10359519E-04  0.81714053E-05 
    6    8    0.99051023E-06  0.92206782E-06 
    7    8    0.37722157E-04 -0.21431095E-05 
    8    8    0.43931493E-03  0.49805521E-05 
    9    8   -0.28857591E-05  0.52088908E-05 
    1    9    0.93980923E-03 -0.14633915E-03 
    2    9   -0.13143167E-03 -0.14730259E-04 
    3    9   -0.42791580E-03  0.35115109E-04 
    4    9    0.14308245E-02 -0.34626895E-03 
    5    9   -0.16736509E-03  0.21318491E-04 
    6    9    0.52224339E-03 -0.42531866E-04 
    7    9    0.12284037E-02 -0.47837696E-05 
    8    9   -0.18400989E-04  0.17743402E-05 
    9    9   -0.60952876E-03  0.21977079E-05 

   -4    1   -2
    1    1    0.18687692E-02 -0.38894366E-04 
    2    1    0.25654668E-02  0.39845417E-03 
    3    1    0.58984786E-03 -0.10697072E-03 
    4    1    0.41202609E-02 -0.38567687E-03 
    5    1   -0.77298563E-03 -0.14489439E-03 
    6    1   -0.13116615E-02 -0.21781846E-03 
    7    1   -0.36304094E-03 -0.66908511E-04 
    8    1    0.47319136E-03  0.83823396E-04 
    9    1    0.13072997E-03  0.22181860E-04 
    1    2    0.17430846E-03  0.37610514E-04 
    2    2    0.80688870E-02 -0.43688422E-05 
    3    2    0.12812087E-02 -0.53697550E-04 
    4    2   -0.35403268E-02  0.12290250E-02 
    5    2    0.17503717E-02 -0.78880299E-04 
    6    2    0.13575961E-02  0.74690275E-05 
    7    2    0.10675338E-03 -0.46640832E-04 
    8    2   -0.31315784E-03 -0.90967220E-05 
    9    2   -0.25536773E-02  0.12539016E-03 
    1    3    0.12679543E-02  0.72756145E-04 
    2    3    0.55047331E-02  0.66115096E-03 
    3    3    0.17494885E-02  0.13657406E-04 
    4    3   -0.67488912E-03  0.25974663E-03 
    5    3   -0.14832948E-02 -0.14453906E-03 
    6    3   -0.21883953E-02 -0.11614952E-03 
    7    3   -0.13065836E-02 -0.10342954E-03 
    8    3    0.23230037E-03  0.29229595E-04 
    9    3    0.52835780E-03  0.44452205E-04 
    1    4    0.69628602E-02  0.74849326E-03 
    2    4   -0.68810452E-04 -0.18943017E-03 
    3    4   -0.27238110E-03 -0.24142171E-03 
    4    4    0.19301259E-02  0.34843404E-04 
    5    4    0.17382842E-02  0.50676202E-03 
    6    4    0.91278296E-03  0.18970750E-03 
    7    4   -0.62645495E-03 -0.18757450E-03 
    8    4    0.37836062E-05 -0.16890317E-04 
    9    4   -0.12866607E-02 -0.31691009E-03 
    1    5    0.11795338E-02 -0.15983910E-03 
    2    5    0.91521930E-03  0.50795459E-04 
    3    5   -0.75832930E-03  0.39978280E-04 
    4    5    0.65472354E-03 -0.18479319E-03 
    5    5    0.34979104E-03  0.11040363E-04 
    6    5    0.17370781E-03 -0.36746911E-05 
    7    5   -0.32767364E-03 -0.67334369E-05 
    8    5   -0.49471787E-03  0.33717621E-04 
    9    5   -0.25967093E-03 -0.16284528E-04 
    1    6   -0.19364566E-02  0.29030654E-03 
    2    6    0.25204739E-02  0.13471622E-03 
    3    6   -0.17945609E-03  0.46537627E-04 
    4    6    0.24427501E-04 -0.20255564E-04 
    5    6   -0.11163724E-03 -0.55841381E-05 
    6    6   -0.12916466E-03  0.13615705E-04 
    7    6    0.94512487E-04  0.21821382E-05 
    8    6   -0.46104643E-03  0.25729216E-05 
    9    6   -0.58900434E-03  0.30011028E-05 
    1    7   -0.83313690E-03  0.16905228E-03 
    2    7   -0.42466628E-03 -0.24819395E-04 
    3    7   -0.45130278E-03  0.80177399E-05 
    4    7    0.92937812E-03 -0.20208819E-03 
    5    7    0.56807873E-05  0.26941631E-04 
    6    7    0.16616845E-03 -0.41745646E-04 
    7    7   -0.54408512E-04  0.41280405E-05 
    8    7   -0.53884819E-03  0.23122929E-05 
    9    7   -0.28215049E-03 -0.31188581E-06 
    1    8   -0.77238708E-03  0.16295248E-03 
    2    8   -0.10775822E-02 -0.62998652E-04 
    3    8    0.10885958E-02 -0.63901111E-04 
    4    8   -0.41746291E-05  0.29812765E-04 
    5    8   -0.74400422E-03 -0.77055185E-05 
    6    8   -0.69085025E-03 -0.19959042E-04 
    7    8   -0.94734868E-03 -0.18665870E-04 
    8    8   -0.13779824E-02  0.46086022E-06 
    9    8    0.47068657E-03  0.92500360E-05 
    1    9    0.27137438E-02 -0.38800500E-03 
    2    9   -0.40093028E-02 -0.13352284E-03 
    3    9    0.17188574E-02 -0.12118138E-03 
    4    9   -0.81084286E-03  0.25324413E-03 
    5    9   -0.11421560E-03  0.27624910E-04 
    6    9   -0.32658081E-03 -0.46677948E-04 
    7    9    0.19480376E-03  0.46487419E-05 
    8    9    0.37089626E-03 -0.14700621E-06 
    9    9    0.44052155E-03 -0.21171161E-04 

   -4    2   -3
    1    1    0.78828316E-02  0.12550221E-04 
    2    1    0.23904904E-02  0.34541678E-03 
    3    1    0.27939166E-03 -0.11833103E-03 
    4    1    0.59548924E-02 -0.48886874E-03 
    5    1    0.36359064E-02  0.63339227E-03 
    6    1   -0.60834376E-03 -0.10114050E-03 
    7    1    0.20356272E-02  0.35233509E-03 
    8    1    0.10634378E-02  0.16557592E-03 
    9    1   -0.13281986E-02 -0.24184756E-03 
    1    2    0.11219112E-03  0.76555999E-04 
    2    2    0.14464381E-02 -0.45340914E-04 
    3    2    0.60234051E-02 -0.67041906E-03 
    4    2    0.10119479E-02 -0.12372395E-03 
    5    2   -0.31410071E-02  0.40478194E-04 
    6    2   -0.35682508E-03  0.46933372E-04 
    7    2   -0.16629150E-02  0.64332787E-04 
    8    2    0.73783937E-03 -0.10481761E-03 
    9    2   -0.77180294E-03  0.15244707E-04 
    1    3   -0.33320380E-02  0.39578424E-03 
    2    3    0.36976980E-02  0.40966070E-03 
    3    3    0.13374352E-02  0.60289387E-04 
    4    3   -0.51860630E-03  0.22624651E-03 
    5    3    0.83533648E-03  0.51001059E-04 
    6    3    0.95642587E-03  0.11571585E-03 
    7    3    0.19611051E-03  0.10492914E-04 
    8    3   -0.21923327E-04 -0.12902993E-04 
    9    3   -0.65103127E-03 -0.31106487E-04 
    1    4    0.17059910E-02  0.34548207E-03 
    2    4    0.22765021E-03 -0.10677375E-03 
    3    4   -0.84733263E-04 -0.20068859E-03 
    4    4    0.24683174E-02 -0.57057465E-05 
    5    4   -0.16153631E-02 -0.44300042E-03 
    6    4   -0.52455504E-03 -0.15742380E-03 
    7    4   -0.13305109E-03 -0.86540137E-05 
    8    4   -0.11791634E-02 -0.31311050E-03 
    9    4    0.10462481E-02  0.28612210E-03 
    1    5    0.22281413E-02 -0.39168163E-03 
    2    5   -0.15144206E-03 -0.18427870E-04 
    3    5    0.13970531E-02 -0.16688727E-03 
    4    5   -0.52215270E-03  0.15619028E-03 
    5    5    0.32807957E-03 -0.12731562E-04 
    6    5    0.27536161E-03 -0.11693412E-04 
    7    5    0.51467847E-03 -0.10227086E-04 
    8    5    0.49451178E-03 -0.10333982E-04 
    9    5   -0.19865772E-03 -0.63063308E-05 
    1    6    0.10641101E-03 -0.10395067E-03 
    2    6   -0.10730590E-03  0.46263450E-05 
    3    6   -0.66948189E-03  0.55728519E-04 
    4    6   -0.12376145E-02  0.31201885E-03 
    5    6   -0.11642125E-03 -0.11921912E-04 
    6    6   -0.14390252E-03  0.13049597E-04 
    7    6    0.76445317E-04  0.50686664E-05 
    8    6    0.95368490E-03 -0.95652139E-05 
    9    6    0.28778136E-03  0.17824303E-04 
    1    7    0.96722573E-03 -0.75153325E-04 
    2    7   -0.14008668E-02 -0.45110572E-04 
    3    7    0.80376212E-03 -0.79775156E-04 
    4    7   -0.23066787E-02  0.66337102E-03 
    5    7    0.17224470E-03  0.56744843E-04 
    6    7    0.16826507E-03 -0.52050286E-04 
    7    7   -0.15108578E-03 -0.21251221E-05 
    8    7    0.80852387E-03  0.57717236E-06 
    9    7   -0.66557231E-04 -0.19136711E-04 
    1    8    0.48358458E-03 -0.40632876E-04 
    2    8   -0.54423694E-03 -0.51491863E-04 
    3    8   -0.94130018E-05  0.88976954E-05 
    4    8   -0.25911417E-03  0.68639236E-04 
    5    8    0.43511967E-03  0.21258508E-04 
    6    8    0.49754368E-03  0.11884341E-04 
    7    8    0.53683488E-03  0.11405474E-04 
    8    8   -0.13436965E-02 -0.65846654E-06 
    9    8   -0.54766063E-03  0.69744433E-05 
    1    9   -0.20402433E-02  0.40140077E-03 
    2    9    0.72532291E-03  0.59788967E-04 
    3    9   -0.19562033E-02  0.15553724E-03 
    4    9    0.13887427E-02 -0.32086372E-03 
    5    9   -0.10453714E-03  0.36416152E-04 
    6    9   -0.10321311E-03 -0.29872878E-04 
    7    9    0.83937727E-04 -0.81314594E-05 
    8    9   -0.75187379E-03  0.31256034E-04 
    9    9    0.42832510E-03 -0.48826289E-05 

   -4    2   -2
    1    1    0.48319432E-02 -0.54811470E-04 
    2    1    0.70632865E-02  0.12728438E-02 
    3    1    0.20164539E-02 -0.18832432E-04 
    4    1   -0.11326014E-02  0.14178791E-03 
    5    1    0.90851229E-03  0.14343183E-03 
    6    1   -0.16887745E-03 -0.37746934E-04 
    7    1    0.30161246E-03  0.52488237E-04 
    8    1   -0.67539766E-03 -0.94285534E-04 
    9    1   -0.26490734E-02 -0.44516069E-03 
    1    2   -0.19943333E-03 -0.16294904E-03 
    2    2    0.48441130E-02 -0.53403356E-04 
    3    2    0.17351916E-02 -0.17326043E-03 
    4    2   -0.33921078E-02  0.11918629E-02 
    5    2   -0.90295162E-04 -0.10416384E-03 
    6    2   -0.49226395E-03  0.59902630E-04 
    7    2    0.17312056E-03 -0.67571636E-04 
    8    2   -0.11333521E-02  0.12428314E-04 
    9    2   -0.37166736E-02  0.12529923E-03 
    1    3   -0.31952333E-02  0.41078859E-03 
    2    3   -0.13636129E-02 -0.17646468E-03 
    3    3    0.27344863E-02  0.36070685E-04 
    4    3    0.64945498E-03  0.18113340E-04 
    5    3   -0.12706395E-02 -0.12826561E-03 
    6    3   -0.40201897E-03  0.61927542E-05 
    7    3   -0.22587942E-02 -0.16539583E-03 
    8    3    0.18926064E-03  0.44433548E-05 
    9    3    0.16116663E-02  0.12809683E-03 
    1    4    0.23554828E-02  0.35138780E-03 
    2    4    0.16582840E-02  0.33339274E-03 
    3    4    0.31014954E-02  0.35657771E-03 
    4    4    0.34972859E-02  0.30001192E-04 
    5    4    0.40128309E-03  0.14576082E-03 
    6    4   -0.20860798E-03 -0.95127584E-04 
    7    4    0.26636610E-03  0.65449144E-04 
    8    4    0.40122099E-03  0.86847495E-04 
    9    4   -0.76614262E-03 -0.18034170E-03 
    1    5    0.34783367E-02 -0.56827232E-03 
    2    5    0.24699238E-02  0.55870297E-04 
    3    5    0.84431217E-03 -0.12432287E-03 
    4    5   -0.14203844E-02  0.40374887E-03 
    5    5    0.18002616E-02  0.11292733E-04 
    6    5    0.66724175E-03 -0.19429492E-04 
    7    5    0.76866206E-04 -0.62595776E-05 
    8    5   -0.35953278E-05  0.29191927E-05 
    9    5   -0.10627895E-02  0.76236563E-05 
    1    6    0.19028260E-03 -0.13226348E-03 
    2    6    0.55769465E-03  0.25951009E-04 
    3    6    0.31254320E-03 -0.13193179E-04 
    4    6   -0.23651308E-02  0.59074404E-03 
    5    6    0.62902673E-03 -0.96996657E-05 
    6    6    0.55155016E-03  0.17618243E-04 
    7    6   -0.54184184E-03  0.95328715E-05 
    8    6   -0.47440803E-03  0.11292531E-04 
    9    6   -0.28206491E-03  0.90656468E-05 
    1    7   -0.93213103E-03  0.18121130E-03 
    2    7   -0.36115999E-03 -0.24083938E-04 
    3    7   -0.19769617E-03 -0.10930131E-04 
    4    7   -0.61362876E-03  0.20320823E-03 
    5    7   -0.12536361E-03  0.30542962E-04 
    6    7    0.47546903E-03 -0.27219285E-04 
    7    7    0.56141168E-03  0.80626255E-05 
    8    7    0.50652093E-03 -0.55224941E-05 
    9    7   -0.50584565E-03 -0.43487797E-05 
    1    8    0.13222116E-02 -0.17313644E-03 
    2    8    0.74512807E-03  0.25682867E-04 
    3    8   -0.42274557E-03  0.17601898E-04 
    4    8   -0.16909955E-03  0.47979646E-04 
    5    8   -0.12345263E-03 -0.19927810E-05 
    6    8   -0.56595480E-03 -0.86238693E-05 
    7    8    0.46162796E-03  0.72923346E-05 
    8    8    0.12329598E-02 -0.67003817E-05 
    9    8   -0.44046044E-04  0.13068820E-04 
    1    9   -0.46641371E-03  0.21175258E-03 
    2    9   -0.13944808E-02 -0.14355498E-04 
    3    9   -0.57800205E-03  0.57052035E-04 
    4    9    0.12477880E-02 -0.28156470E-03 
    5    9   -0.20454212E-03  0.48440952E-04 
    6    9   -0.40979928E-04 -0.39944095E-04 
    7    9   -0.64031516E-03  0.70793123E-05 
    8    9   -0.22505713E-03  0.91006590E-05 
    9    9    0.20003003E-02 -0.66878251E-05 

   -4    2   -1
    1    1    0.38498387E-02 -0.43169115E-04 
    2    1    0.43030869E-02  0.70640956E-03 
    3    1   -0.10494259E-02 -0.35911354E-03 
    4    1    0.39395776E-02 -0.42621171E-03 
    5    1    0.86969215E-04  0.25550535E-04 
    6    1   -0.27327020E-02 -0.42697473E-03 
    7    1   -0.13436124E-02 -0.21954842E-03 
    8    1   -0.14934991E-02 -0.19695497E-03 
    9    1   -0.41740577E-03 -0.59736299E-04 
    1    2   -0.48952346E-02  0.95801029E-03 
    2    2    0.66467323E-02 -0.46034596E-04 
    3    2    0.48885544E-02 -0.56504828E-03 
    4    2   -0.29630797E-02  0.10866782E-02 
    5    2   -0.29612252E-03 -0.72569138E-04 
    6    2    0.15421200E-02 -0.70656393E-04 
    7    2   -0.26768911E-02  0.56859608E-04 
    8    2    0.43246486E-03 -0.67515827E-04 
    9    2   -0.27234505E-02  0.94863242E-04 
    1    3   -0.51851605E-02  0.62922169E-03 
    2    3    0.15489462E-02  0.10153163E-03 
    3    3    0.31175808E-02  0.27578032E-04 
    4    3   -0.82599189E-03  0.35890734E-03 
    5    3   -0.14267687E-02 -0.12426075E-03 
    6    3   -0.61552594E-03 -0.39138495E-04 
    7    3   -0.71008080E-03 -0.61552649E-04 
    8    3   -0.21120885E-02 -0.11955924E-03 
    9    3    0.12653792E-02  0.11773758E-03 
    1    4    0.55851168E-02  0.59245558E-03 
    2    4   -0.37042642E-02 -0.13233298E-02 
    3    4    0.11056984E-02 -0.20261514E-04 
    4    4    0.16974262E-03  0.13738559E-04 
    5    4    0.18665510E-02  0.56423193E-03 
    6    4    0.34363091E-03  0.90096923E-04 
    7    4   -0.61844394E-03 -0.19918601E-03 
    8    4    0.82559647E-03  0.20446530E-03 
    9    4   -0.16838346E-02 -0.42597812E-03 
    1    5    0.12393916E-02 -0.15313455E-03 
    2    5    0.13215033E-02  0.40181628E-04 
    3    5   -0.44817586E-03 -0.39417450E-05 
    4    5    0.19354290E-02 -0.56254728E-03 
    5    5   -0.20405268E-03  0.18177396E-04 
    6    5   -0.10095917E-02  0.17636991E-04 
    7    5   -0.79809059E-04 -0.21421209E-04 
    8    5    0.43270642E-04  0.52788766E-05 
    9    5   -0.52690352E-03  0.75862664E-06 
    1    6   -0.22573615E-02  0.32694340E-03 
    2    6    0.63408329E-04 -0.26632402E-04 
    3    6   -0.16998356E-02  0.13005796E-03 
    4    6    0.12079644E-02 -0.31890787E-03 
    5    6   -0.24307237E-03 -0.20296252E-04 
    6    6   -0.92365944E-03  0.28841537E-05 
    7    6    0.29377249E-03  0.19582903E-04 
    8    6   -0.68331162E-03  0.12647982E-04 
    9    6    0.59333549E-03  0.27311162E-04 
    1    7    0.30305442E-04 -0.12894939E-04 
    2    7   -0.12136519E-02 -0.65116134E-04 
    3    7   -0.95091679E-03  0.51148589E-04 
    4    7    0.32927166E-03 -0.90929505E-04 
    5    7    0.75197535E-03  0.29278077E-04 
    6    7   -0.23033185E-03 -0.10063937E-04 
    7    7   -0.34612173E-03  0.85162519E-05 
    8    7   -0.40812920E-03  0.10322821E-04 
    9    7    0.44648781E-03  0.58477074E-05 
    1    8   -0.46776151E-05 -0.44485721E-05 
    2    8   -0.48970366E-03 -0.15006282E-04 
    3    8    0.13298963E-03 -0.32170610E-04 
    4    8    0.35270422E-03 -0.69019587E-04 
    5    8    0.19217787E-03  0.65944723E-05 
    6    8   -0.20299041E-03 -0.15562711E-05 
    7    8   -0.71572843E-03 -0.33476552E-05 
    8    8   -0.32744332E-03 -0.21056504E-05 
    9    8    0.32573655E-03  0.52398206E-05 
    1    9    0.15615810E-02 -0.19125181E-03 
    2    9   -0.35040627E-02 -0.92295327E-04 
    3    9    0.58719301E-04  0.23124554E-04 
    4    9   -0.49915131E-03  0.17796873E-03 
    5    9   -0.26864236E-03  0.29042563E-04 
    6    9    0.28005820E-03 -0.31970046E-04 
    7    9    0.14345464E-02  0.17685500E-04 
    8    9    0.46806447E-03  0.76285115E-06 
    9    9    0.78079575E-03  0.21953218E-06 

   -4    3   -2
    1    1    0.65553251E-02 -0.50118610E-04 
    2    1    0.43697714E-02  0.70406362E-03 
    3    1   -0.34595474E-02 -0.50622185E-03 
    4    1    0.16661403E-02 -0.15507173E-03 
    5    1    0.29544964E-02  0.49905608E-03 
    6    1   -0.99834616E-03 -0.18436615E-03 
    7    1   -0.52792663E-03 -0.95049093E-04 
    8    1    0.49419555E-03  0.46682311E-04 
    9    1   -0.19296672E-02 -0.34076932E-03 
    1    2   -0.52160111E-02  0.10676676E-02 
    2    2    0.33619068E-02 -0.52917562E-04 
    3    2    0.50004085E-02 -0.61222250E-03 
    4    2   -0.53950756E-02  0.18313247E-02 
    5    2   -0.19904664E-02 -0.83031551E-05 
    6    2    0.51798738E-03 -0.38797666E-04 
    7    2   -0.20734953E-02  0.77914719E-04 
    8    2    0.71909797E-04 -0.34879723E-04 
    9    2   -0.96416802E-03 -0.12315653E-04 
    1    3   -0.26976767E-02  0.42572303E-03 
    2    3    0.33546831E-02  0.33016155E-03 
    3    3   -0.54752325E-03  0.14550511E-04 
    4    3   -0.50193428E-03  0.27387014E-03 
    5    3    0.45920806E-03  0.35630759E-04 
    6    3    0.28081646E-03  0.96933968E-05 
    7    3    0.14654263E-02  0.11301050E-03 
    8    3   -0.27799474E-03 -0.46636241E-04 
    9    3   -0.19544274E-02 -0.12293850E-03 
    1    4    0.51703706E-02  0.55996662E-03 
    2    4   -0.12424439E-02 -0.60953296E-03 
    3    4    0.10668834E-02  0.31301837E-05 
    4    4    0.36444395E-02  0.52938300E-04 
    5    4   -0.23065782E-03 -0.59606248E-04 
    6    4   -0.75201251E-03 -0.24038235E-03 
    7    4   -0.17267859E-02 -0.46537959E-03 
    8    4   -0.17703005E-03 -0.44218642E-04 
    9    4    0.44973377E-03  0.12657841E-03 
    1    5    0.26108423E-02 -0.43412460E-03 
    2    5    0.10796376E-03 -0.22367985E-04 
    3    5    0.16439537E-02 -0.18323436E-03 
    4    5   -0.10909830E-02  0.29595409E-03 
    5    5    0.37925192E-03  0.88451329E-05 
    6    5   -0.41425059E-03 -0.16749202E-05 
    7    5   -0.82391904E-03 -0.47105465E-05 
    8    5    0.38712255E-03 -0.15998474E-04 
    9    5   -0.58235668E-03 -0.21918486E-05 
    1    6   -0.27821193E-02  0.35717288E-03 
    2    6   -0.84618743E-03 -0.29449325E-04 
    3    6   -0.47581159E-03  0.13976010E-04 
    4    6   -0.86540427E-03  0.19153637E-03 
    5    6   -0.12439197E-02 -0.46725002E-04 
    6    6   -0.30190229E-03  0.21678039E-04 
    7    6    0.45820614E-03  0.25767961E-04 
    8    6    0.66800960E-03 -0.11309725E-04 
    9    6    0.10356936E-03  0.30774376E-04 
    1    7    0.80726720E-03 -0.13435811E-03 
    2    7   -0.28068153E-02 -0.11015903E-03 
    3    7    0.26208497E-03  0.11502984E-05 
    4    7   -0.75525666E-03  0.21496324E-03 
    5    7   -0.47801533E-03  0.16381682E-04 
    6    7   -0.16275174E-03 -0.48857900E-05 
    7    7   -0.82696942E-03 -0.39595622E-06 
    8    7    0.23362339E-03 -0.21789711E-05 
    9    7    0.11184284E-02  0.27184795E-05 
    1    8   -0.30417996E-03  0.44712724E-04 
    2    8    0.15296612E-02  0.68187131E-04 
    3    8   -0.78211437E-03  0.33947835E-04 
    4    8    0.20307121E-02 -0.50996966E-03 
    5    8    0.58658757E-03  0.18985181E-04 
    6    8    0.30972085E-03  0.47425747E-05 
    7    8    0.65100608E-03  0.14358124E-04 
    8    8   -0.34142857E-03  0.57148379E-06 
    9    8   -0.17242527E-04  0.57831355E-05 
    1    9   -0.20218998E-03  0.12377028E-03 
    2    9   -0.20531309E-03  0.23697052E-04 
    3    9   -0.22273008E-02  0.15997813E-03 
    4    9    0.15043628E-02 -0.35818597E-03 
    5    9   -0.46410327E-03  0.33657513E-04 
    6    9   -0.71478050E-03 -0.21281406E-04 
    7    9    0.39346230E-03  0.18105872E-05 
    8    9    0.18097008E-03  0.33136354E-05 
    9    9   -0.10488863E-03  0.11849509E-05 

   -4    3   -1
    1    1    0.33912244E-02 -0.24676230E-04 
    2    1   -0.33112152E-02 -0.91601731E-03 
    3    1    0.14257068E-03 -0.22712413E-03 
    4    1   -0.57050657E-03  0.62089726E-04 
    5    1    0.19290115E-02  0.34891517E-03 
    6    1    0.12150301E-02  0.17939677E-03 
    7    1    0.70553426E-04  0.20615520E-05 
    8    1    0.15612926E-02  0.25979148E-03 
    9    1    0.33891900E-03  0.62424063E-04 
    1    2   -0.54987304E-02  0.12415202E-02 
    2    2    0.29930351E-02 -0.34141852E-04 
    3    2    0.39779637E-02 -0.48951909E-03 
    4    2    0.30188874E-03  0.10823570E-03 
    5    2   -0.16324897E-02  0.10288150E-04 
    6    2    0.10410666E-02 -0.52456412E-04 
    7    2   -0.13221357E-02  0.56013352E-04 
    8    2   -0.82970148E-03  0.42109980E-04 
    9    2   -0.18118276E-02  0.50298193E-04 
    1    3    0.31201144E-03  0.19610585E-03 
    2    3   -0.92043641E-03 -0.11329615E-03 
    3    3    0.29878198E-02  0.23864417E-04 
    4    3   -0.32141787E-02  0.84177014E-03 
    5    3   -0.13369326E-03 -0.47663802E-05 
    6    3    0.48522053E-03  0.54779997E-05 
    7    3   -0.19184106E-02 -0.13701578E-03 
    8    3    0.15849226E-02  0.60878997E-04 
    9    3    0.13341126E-02  0.10148479E-03 
    1    4    0.43921766E-02  0.44992172E-03 
    2    4    0.15104745E-03 -0.16405559E-03 
    3    4   -0.55787658E-02 -0.11678066E-02 
    4    4    0.34348137E-02  0.31066863E-04 
    5    4    0.16219448E-02  0.46245623E-03 
    6    4   -0.21114370E-02 -0.52129250E-03 
    7    4    0.12298335E-02  0.28574791E-03 
    8    4   -0.74836459E-03 -0.17824584E-03 
    9    4    0.68473263E-03  0.18487993E-03 
    1    5    0.20408750E-02 -0.33463828E-03 
    2    5   -0.49763092E-03 -0.31039138E-04 
    3    5   -0.10907597E-02  0.74543355E-04 
    4    5   -0.11769817E-02  0.33468805E-03 
    5    5    0.52456610E-03  0.98912071E-05 
    6    5    0.15014098E-02 -0.31425438E-04 
    7    5    0.78889826E-03 -0.39557664E-04 
    8    5   -0.25005956E-03  0.17509987E-04 
    9    5   -0.76090655E-03  0.86069769E-05 
    1    6   -0.15874694E-02  0.24999902E-03 
    2    6    0.86556565E-04 -0.22006985E-04 
    3    6    0.16648856E-02 -0.14167402E-03 
    4    6   -0.19436047E-02  0.47945528E-03 
    5    6    0.13272111E-02  0.22368892E-04 
    6    6    0.45440066E-03 -0.23924864E-05 
    7    6    0.43373637E-03  0.25045783E-04 
    8    6   -0.55186337E-03  0.29706213E-05 
    9    6   -0.79542390E-03  0.26817904E-04 
    1    7    0.66449201E-03 -0.11541522E-03 
    2    7    0.14122468E-02  0.65910382E-04 
    3    7   -0.17891462E-02  0.16499978E-03 
    4    7    0.32139928E-03 -0.92903413E-04 
    5    7    0.79249682E-03  0.35768482E-04 
    6    7    0.73365682E-03 -0.64107549E-05 
    7    7    0.51881083E-03 -0.75062303E-05 
    8    7    0.20346743E-03  0.10030651E-04 
    9    7   -0.15786717E-02 -0.16724837E-05 
    1    8    0.84613219E-03 -0.13175484E-03 
    2    8   -0.16134287E-02 -0.11703404E-03 
    3    8    0.78766729E-03 -0.36789574E-04 
    4    8   -0.15529917E-02  0.40867865E-03 
    5    8   -0.57334136E-03 -0.86533505E-05 
    6    8   -0.21382926E-03 -0.14818892E-04 
    7    8    0.63917144E-03  0.13542699E-04 
    8    8   -0.69040933E-04 -0.66297864E-06 
    9    8   -0.18610024E-03  0.82407017E-05 
    1    9    0.12365330E-02 -0.16224361E-03 
    2    9   -0.18643654E-02 -0.56350750E-04 
    3    9   -0.13773088E-02  0.11279958E-03 
    4    9    0.22458286E-04  0.23223160E-04 
    5    9   -0.48316804E-03  0.10601390E-04 
    6    9   -0.78609304E-03 -0.26027301E-04 
    7    9   -0.14013571E-02 -0.28828947E-05 
    8    9   -0.62043977E-03  0.13474446E-04 
    9    9    0.49471314E-03  0.23332696E-06 

   -3   -1   -2
    1    1   -0.82860241E-04 -0.30188085E-04 
    2    1   -0.18032725E-02 -0.56792783E-03 
    3    1   -0.34863735E-02 -0.45653548E-03 
    4    1    0.65335874E-02 -0.66145616E-03 
    5    1    0.12488230E-02  0.18826797E-03 
    6    1   -0.16477099E-02 -0.26891303E-03 
    7    1   -0.61664707E-03 -0.11292333E-03 
    8    1    0.35257788E-03  0.29230725E-04 
    9    1    0.11425440E-02  0.19803624E-03 
    1    2   -0.22059877E-02  0.70206608E-03 
    2    2   -0.45465528E-03  0.62532019E-05 
    3    2    0.61103162E-02 -0.71882459E-03 
    4    2   -0.33654090E-02  0.12075020E-02 
    5    2   -0.16148751E-02  0.63656953E-04 
    6    2   -0.24142476E-03  0.66976874E-05 
    7    2   -0.15686776E-02  0.63676694E-04 
    8    2   -0.30869315E-03  0.29265238E-05 
    9    2   -0.11905781E-02  0.27510197E-04 
    1    3   -0.19159041E-02  0.44295639E-03 
    2    3    0.69162362E-02  0.78556334E-03 
    3    3   -0.60760657E-03 -0.29238555E-04 
    4    3   -0.20152339E-02  0.63351187E-03 
    5    3    0.46103112E-03  0.63470924E-04 
    6    3    0.20013282E-02  0.11484381E-03 
    7    3   -0.76946131E-03 -0.67460086E-04 
    8    3   -0.16089547E-02 -0.79642521E-04 
    9    3   -0.17296572E-02 -0.13839289E-03 
    1    4    0.80881268E-02  0.77443256E-03 
    2    4   -0.17347343E-02 -0.75323110E-03 
    3    4   -0.22134389E-02 -0.61729969E-03 
    4    4   -0.21203561E-03  0.60041269E-05 
    5    4    0.18742433E-02  0.52152019E-03 
    6    4   -0.98857577E-03 -0.27645841E-03 
    7    4    0.17289325E-02  0.44668771E-03 
    8    4    0.15706712E-02  0.41085154E-03 
    9    4   -0.76090691E-03 -0.18668593E-03 
    1    5    0.10183127E-02 -0.17374550E-03 
    2    5   -0.20574177E-02 -0.54808939E-04 
    3    5    0.22027548E-03 -0.18459302E-04 
    4    5    0.16062686E-02 -0.46275188E-03 
    5    5    0.17882419E-04 -0.97879765E-05 
    6    5   -0.11622609E-02  0.22692537E-04 
    7    5   -0.11487767E-02  0.58436723E-05 
    8    5    0.36290810E-03 -0.86593794E-05 
    9    5    0.94574978E-03 -0.36483938E-04 
    1    6   -0.19710382E-02  0.30823186E-03 
    2    6   -0.45231211E-03 -0.66242394E-06 
    3    6    0.16015463E-02 -0.90536404E-04 
    4    6   -0.12250698E-02  0.30086654E-03 
    5    6   -0.68181332E-03 -0.10128043E-04 
    6    6    0.55130646E-04  0.10491092E-04 
    7    6   -0.10246487E-02  0.16477300E-04 
    8    6    0.13696317E-03 -0.15123664E-04 
    9    6    0.44442218E-03  0.11142238E-04 
    1    7   -0.81829996E-03  0.12048575E-03 
    2    7   -0.16878837E-02 -0.52660163E-04 
    3    7   -0.10905063E-02  0.11425203E-03 
    4    7    0.12002260E-02 -0.33243093E-03 
    5    7   -0.48564020E-03 -0.43415432E-06 
    6    7   -0.95559507E-03 -0.13480627E-04 
    7    7   -0.36908229E-04 -0.10476923E-04 
    8    7   -0.16032799E-03 -0.88631283E-05 
    9    7    0.61368345E-03 -0.27064265E-05 
    1    8   -0.15765354E-02  0.24427224E-03 
    2    8    0.15638158E-02  0.10841254E-03 
    3    8    0.27097749E-03 -0.38191570E-04 
    4    8   -0.28178422E-03  0.51255641E-04 
    5    8    0.18342908E-03  0.12533015E-04 
    6    8    0.30145690E-03  0.51251209E-05 
    7    8   -0.30703940E-03 -0.53583790E-05 
    8    8   -0.16285405E-02  0.69801458E-06 
    9    8    0.17956489E-03 -0.10999370E-04 
    1    9    0.17790267E-02 -0.30635434E-03 
    2    9   -0.80134719E-03 -0.44442906E-04 
    3    9   -0.15869751E-02  0.11474337E-03 
    4    9   -0.52562592E-03  0.14129412E-03 
    5    9    0.10392710E-02  0.35742897E-04 
    6    9    0.11355928E-02 -0.18416797E-04 
    7    9    0.13140169E-02  0.83448124E-06 
    8    9    0.30134400E-03 -0.83058134E-05 
    9    9   -0.38518390E-04  0.12891723E-04 

   -3   -1   -1
    1    1    0.18524232E-03 -0.26708157E-04 
    2    1    0.10232811E-02  0.36562119E-04 
    3    1    0.75259937E-03 -0.83930441E-04 
    4    1    0.32673939E-02 -0.32877033E-03 
    5    1   -0.19271517E-03 -0.78678991E-04 
    6    1   -0.93095420E-03 -0.14877956E-03 
    7    1   -0.31292221E-04 -0.16462052E-04 
    8    1   -0.35074129E-03 -0.50373659E-04 
    9    1    0.24778416E-03  0.59169472E-04 
    1    2   -0.58835974E-02  0.15152676E-02 
    2    2    0.66830422E-02  0.43222194E-04 
    3    2    0.47592666E-03 -0.20716976E-04 
    4    2   -0.22937467E-02  0.87598060E-03 
    5    2   -0.22815268E-02  0.97803561E-04 
    6    2    0.17380342E-02 -0.46292437E-04 
    7    2   -0.67162549E-03  0.29773388E-04 
    8    2   -0.17341579E-02  0.74684297E-04 
    9    2   -0.82299887E-03  0.80801357E-05 
    1    3    0.47042700E-03  0.25856743E-03 
    2    3    0.23521385E-02  0.32854288E-03 
    3    3    0.30019842E-02 -0.30254498E-04 
    4    3    0.14465053E-02 -0.25572586E-04 
    5    3   -0.12943772E-02 -0.85923249E-04 
    6    3   -0.18465904E-02 -0.13570799E-03 
    7    3   -0.23154218E-03 -0.20316502E-04 
    8    3    0.16917884E-02  0.13599496E-03 
    9    3   -0.39158014E-03 -0.42683993E-04 
    1    4    0.55088267E-02  0.57565586E-03 
    2    4   -0.34127136E-02 -0.12501189E-02 
    3    4    0.11829711E-02  0.17088398E-04 
    4    4    0.37886819E-02  0.35832871E-04 
    5    4    0.16937733E-02  0.45497747E-03 
    6    4   -0.20668996E-03 -0.78686778E-04 
    7    4   -0.47229698E-04 -0.32757501E-04 
    8    4   -0.11886473E-02 -0.30812120E-03 
    9    4    0.27118007E-03  0.57287142E-04 
    1    5    0.10188586E-02 -0.19382889E-03 
    2    5    0.11857010E-02  0.75812766E-04 
    3    5    0.26877583E-03 -0.24670537E-04 
    4    5    0.11579626E-02 -0.34572570E-03 
    5    5   -0.95044388E-03 -0.11973290E-04 
    6    5   -0.22584278E-03  0.11681584E-04 
    7    5    0.23552960E-03 -0.21628623E-04 
    8    5   -0.75966424E-03  0.28084181E-04 
    9    5   -0.16059208E-03 -0.20926398E-04 
    1    6   -0.22070409E-02  0.33492457E-03 
    2    6    0.18520346E-02  0.93425558E-04 
    3    6    0.11027692E-02 -0.75504602E-04 
    4    6    0.50046147E-04 -0.23453781E-04 
    5    6   -0.82283771E-03 -0.11559028E-04 
    6    6    0.38516811E-03  0.10344159E-04 
    7    6   -0.74871691E-03  0.10063752E-04 
    8    6   -0.67221395E-04 -0.40495267E-05 
    9    6   -0.10111960E-02  0.12207830E-04 
    1    7   -0.42056834E-03  0.75548562E-04 
    2    7   -0.14620044E-02 -0.47107944E-04 
    3    7    0.37458943E-03 -0.10551938E-04 
    4    7    0.29780712E-03 -0.61813791E-04 
    5    7   -0.29182947E-03  0.17112526E-04 
    6    7    0.41051720E-03 -0.24789166E-04 
    7    7    0.14800607E-03 -0.14556797E-04 
    8    7   -0.25089560E-03 -0.64249149E-05 
    9    7    0.11086858E-02 -0.72018050E-05 
    1    8   -0.59777596E-03  0.10417709E-03 
    2    8    0.57334086E-03  0.53904178E-04 
    3    8   -0.53721650E-03  0.11577000E-04 
    4    8    0.96507401E-03 -0.22104143E-03 
    5    8   -0.75041528E-03 -0.24306772E-04 
    6    8   -0.25739619E-03 -0.10039184E-04 
    7    8   -0.14721730E-03 -0.11122594E-04 
    8    8   -0.34323716E-03  0.20229534E-05 
    9    8   -0.13449917E-04 -0.42187704E-05 
    1    9    0.18543234E-02 -0.34474306E-03 
    2    9   -0.19910432E-02 -0.82326915E-04 
    3    9    0.84352483E-03 -0.55872303E-04 
    4    9    0.37680496E-05  0.14277244E-04 
    5    9    0.30389581E-03  0.14421800E-04 
    6    9   -0.40125591E-03 -0.33488314E-04 
    7    9    0.10398793E-02 -0.17196300E-04 
    8    9    0.53243176E-03 -0.12349079E-04 
    9    9   -0.29951993E-03 -0.20266899E-05 

   -3    0   -3
    1    1    0.33713323E-02  0.93053274E-11 
    2    1   -0.11879183E-01 -0.27174351E-02 
    3    1   -0.67548192E-02 -0.79171357E-03 
    4    1   -0.86054422E-02  0.81797942E-03 
    5    1    0.14137120E-02  0.25175715E-03 
    6    1    0.95883656E-03  0.16023507E-03 
    7    1    0.22739660E-02  0.38138029E-03 
    8    1    0.15460405E-03 -0.32371181E-05 
    9    1    0.18631890E-02  0.32585679E-03 
    1    2   -0.11879181E-01  0.27174346E-02 
    2    2    0.29306423E-02 -0.20012448E-11 
    3    2   -0.95372714E-02  0.10912561E-02 
    4    2   -0.64847021E-02  0.21810348E-02 
    5    2   -0.19353700E-02  0.72034998E-04 
    6    2    0.23130007E-02 -0.11453384E-03 
    7    2    0.15956273E-02 -0.80412938E-04 
    8    2   -0.70607941E-04 -0.11370236E-04 
    9    2   -0.94153805E-03  0.64938565E-04 
    1    3   -0.67548192E-02  0.79171356E-03 
    2    3   -0.95372725E-02 -0.10912562E-02 
    3    3    0.27299754E-02 -0.85552006E-11 
    4    3   -0.12127026E-01  0.25496952E-02 
    5    3   -0.23302596E-02 -0.19747985E-03 
    6    3    0.20016924E-02  0.11683084E-03 
    7    3   -0.86289950E-03 -0.58214045E-04 
    8    3    0.36052073E-04  0.18601513E-04 
    9    3    0.15383661E-02  0.10787799E-03 
    1    4   -0.86054412E-02 -0.81797928E-03 
    2    4   -0.64847021E-02 -0.21810348E-02 
    3    4   -0.12127024E-01 -0.25496948E-02 
    4    4    0.30835966E-02  0.27110584E-11 
    5    4   -0.89221619E-03 -0.26157452E-03 
    6    4   -0.13412905E-02 -0.36968679E-03 
    7    4    0.19072211E-02  0.52551883E-03 
    8    4   -0.10139778E-03 -0.16198766E-04 
    9    4    0.23166596E-02  0.62760723E-03 
    1    5    0.14137120E-02 -0.25175715E-03 
    2    5   -0.19353698E-02 -0.72035000E-04 
    3    5   -0.23302594E-02  0.19747984E-03 
    4    5   -0.89221580E-03  0.26157442E-03 
    5    5    0.49920497E-03  0.85785429E-12 
    6    5   -0.30831547E-03  0.39235129E-05 
    7    5    0.16575391E-02 -0.51732322E-04 
    8    5    0.17019233E-03 -0.43762162E-05 
    9    5   -0.19819581E-03 -0.35019423E-05 
    1    6    0.95883667E-03 -0.16023509E-03 
    2    6    0.23130005E-02  0.11453382E-03 
    3    6    0.20016922E-02 -0.11683084E-03 
    4    6   -0.13412902E-02  0.36968673E-03 
    5    6   -0.30831518E-03 -0.39235074E-05 
    6    6    0.51902336E-03 -0.75654598E-12 
    7    6    0.19218078E-03  0.75880180E-05 
    8    6    0.95084814E-04 -0.62430903E-05 
    9    6   -0.16474340E-02  0.16901786E-04 
    1    7    0.22739658E-02 -0.38138028E-03 
    2    7    0.15956269E-02  0.80412928E-04 
    3    7   -0.86289960E-03  0.58214055E-04 
    4    7    0.19072209E-02 -0.52551877E-03 
    5    7    0.16575391E-02  0.51732322E-04 
    6    7    0.19218082E-03 -0.75880140E-05 
    7    7    0.22563345E-03  0.99055400E-12 
    8    7   -0.58546969E-04  0.11410375E-05 
    9    7   -0.10195872E-03 -0.28557328E-05 
    1    8    0.15460385E-03  0.32371439E-05 
    2    8   -0.70608337E-04  0.11370210E-04 
    3    8    0.36051892E-04 -0.18601500E-04 
    4    8   -0.10139819E-03  0.16198869E-04 
    5    8    0.17019231E-03  0.43762148E-05 
    6    8    0.95084911E-04  0.62430917E-05 
    7    8   -0.58546940E-04 -0.11410376E-05 
    8    8   -0.19271400E-02 -0.23395397E-12 
    9    8    0.60116250E-04 -0.32691272E-05 
    1    9    0.18631888E-02 -0.32585674E-03 
    2    9   -0.94153784E-03 -0.64938557E-04 
    3    9    0.15383662E-02 -0.10787798E-03 
    4    9    0.23166593E-02 -0.62760716E-03 
    5    9   -0.19819579E-03  0.35019465E-05 
    6    9   -0.16474339E-02 -0.16901786E-04 
    7    9   -0.10195901E-03  0.28557328E-05 
    8    9    0.60116141E-04  0.32691297E-05 
    9    9    0.33052185E-03 -0.67441718E-12 

   -3    0   -2
    1    1    0.33307613E-02  0.11005198E-04 
    2    1    0.13061995E-03 -0.11812740E-03 
    3    1   -0.22246905E-02 -0.34322960E-03 
    4    1    0.39463083E-02 -0.38114091E-03 
    5    1    0.11924671E-02  0.20100998E-03 
    6    1   -0.43235985E-03 -0.80342095E-04 
    7    1    0.47884778E-03  0.79657744E-04 
    8    1   -0.14573570E-02 -0.22170446E-03 
    9    1    0.84216877E-03  0.13947675E-03 
    1    2   -0.18322925E-01  0.41014559E-02 
    2    2    0.81283544E-02 -0.29560286E-05 
    3    2   -0.36066176E-02  0.53509244E-03 
    4    2   -0.74936153E-02  0.24415154E-02 
    5    2   -0.15988378E-02  0.10579391E-03 
    6    2   -0.14924909E-02  0.10598694E-03 
    7    2   -0.36684387E-02  0.14371607E-03 
    8    2   -0.32988455E-02  0.14807572E-03 
    9    2    0.58759473E-02 -0.27555592E-03 
    1    3   -0.40434662E-02  0.56346438E-03 
    2    3    0.32604963E-02  0.41386780E-03 
    3    3    0.39987392E-02 -0.23085083E-04 
    4    3   -0.70262069E-03  0.29587749E-03 
    5    3   -0.20485780E-02 -0.16215552E-03 
    6    3    0.16115544E-02  0.12695722E-03 
    7    3   -0.67363977E-03 -0.49196755E-04 
    8    3    0.24118707E-03  0.39478666E-04 
    9    3    0.40544850E-03  0.24524027E-04 
    1    4    0.71911614E-02  0.63804934E-03 
    2    4   -0.16201425E-02 -0.67057684E-03 
    3    4   -0.24397549E-02 -0.81061991E-03 
    4    4    0.68482696E-02 -0.77421694E-05 
    5    4    0.14275612E-03  0.13624917E-04 
    6    4   -0.11345964E-02 -0.33756142E-03 
    7    4    0.21748508E-02  0.59189156E-03 
    8    4    0.57176000E-04  0.10191706E-04 
    9    4    0.48490197E-02  0.13290173E-02 
    1    5    0.14438082E-02 -0.22138180E-03 
    2    5   -0.60191574E-03  0.47645408E-05 
    3    5   -0.12117938E-02  0.11188037E-03 
    4    5    0.24739807E-03 -0.65247042E-04 
    5    5    0.14583620E-02 -0.16479366E-05 
    6    5    0.10669127E-03 -0.76780798E-05 
    7    5   -0.14790036E-03 -0.11442047E-04 
    8    5    0.53418873E-04  0.16896971E-05 
    9    5    0.33986875E-03 -0.33901268E-04 
    1    6    0.23899778E-02 -0.37822852E-03 
    2    6    0.14781895E-02  0.91291818E-04 
    3    6    0.27200727E-02 -0.11250047E-03 
    4    6   -0.20285247E-02  0.50826917E-03 
    5    6    0.60814348E-03  0.18461985E-04 
    6    6    0.30609890E-03  0.20125921E-04 
    7    6   -0.99716793E-03 -0.55557682E-05 
    8    6    0.16125851E-03 -0.22924513E-06 
    9    6   -0.10549157E-02 -0.11416991E-05 
    1    7   -0.60805070E-03  0.13009148E-03 
    2    7    0.91298508E-03  0.38713456E-04 
    3    7    0.55578953E-03  0.29657229E-05 
    4    7    0.46558463E-03 -0.10395337E-03 
    5    7    0.38195444E-03  0.26983253E-04 
    6    7   -0.23105471E-03 -0.35605423E-04 
    7    7    0.12080427E-03 -0.11684688E-04 
    8    7    0.32785415E-03 -0.28715605E-05 
    9    7   -0.62746462E-03 -0.34201223E-05 
    1    8    0.19534692E-02 -0.23740321E-03 
    2    8    0.79273898E-03  0.52419977E-04 
    3    8   -0.38884344E-03 -0.70971143E-06 
    4    8   -0.10401690E-03  0.25409225E-04 
    5    8    0.11703261E-03  0.18356153E-04 
    6    8    0.43345912E-04 -0.50219199E-05 
    7    8    0.42180849E-03  0.13589736E-04 
    8    8    0.11871268E-02 -0.14933578E-05 
    9    8   -0.26459808E-04  0.20983348E-05 
    1    9   -0.15724968E-02  0.23565525E-03 
    2    9   -0.21099475E-02 -0.90536038E-04 
    3    9   -0.44081530E-02  0.25707767E-03 
    4    9    0.19992619E-02 -0.51394635E-03 
    5    9    0.36159620E-03  0.16365975E-04 
    6    9    0.56721602E-03 -0.32710793E-04 
    7    9    0.10484530E-02  0.69053403E-05 
    8    9   -0.99386066E-04 -0.24961234E-06 
    9    9    0.23020800E-04  0.17909586E-04 

   -3    0   -1
    1    1    0.23362409E-02 -0.11873293E-03 
    2    1    0.69594808E-03 -0.25221611E-04 
    3    1   -0.26318642E-02 -0.47452217E-03 
    4    1    0.99254579E-03 -0.12808839E-03 
    5    1    0.30013119E-03  0.11665386E-04 
    6    1   -0.90247874E-03 -0.15077563E-03 
    7    1   -0.66820412E-03 -0.11565346E-03 
    8    1   -0.51381069E-04 -0.19619375E-04 
    9    1    0.21719666E-02  0.37946450E-03 
    1    2   -0.30504290E-01  0.67215470E-02 
    2    2    0.21021693E-02  0.32399592E-04 
    3    2   -0.15349193E-01  0.21310713E-02 
    4    2   -0.10372962E-01  0.34700317E-02 
    5    2    0.32362104E-02 -0.88294534E-04 
    6    2    0.66907710E-03  0.44187394E-04 
    7    2   -0.69504441E-02  0.26173975E-03 
    8    2   -0.56638949E-02  0.29622860E-03 
    9    2    0.33222183E-02 -0.23450220E-03 
    1    3   -0.54635313E-02  0.75769078E-03 
    2    3    0.12661226E-02  0.17955145E-03 
    3    3   -0.56732379E-02  0.68201481E-05 
    4    3   -0.10429604E-02  0.35882301E-03 
    5    3   -0.44668405E-03 -0.18752620E-04 
    6    3   -0.15027897E-02 -0.75865932E-04 
    7    3   -0.80299189E-03 -0.61562873E-04 
    8    3   -0.21302024E-02 -0.11152690E-03 
    9    3    0.11842221E-02  0.85085234E-04 
    1    4    0.32359926E-02  0.29110399E-03 
    2    4   -0.26377750E-02 -0.10860998E-02 
    3    4   -0.10043998E-02 -0.51580230E-03 
    4    4    0.40940729E-03  0.22079819E-06 
    5    4    0.15348071E-03  0.24747838E-04 
    6    4   -0.92941254E-03 -0.33923844E-03 
    7    4    0.70833549E-03  0.15626167E-03 
    8    4    0.30229329E-03 -0.53158122E-05 
    9    4   -0.78984609E-03 -0.16235789E-03 
    1    5    0.18500752E-02 -0.34308843E-03 
    2    5    0.81035925E-03  0.70953339E-04 
    3    5    0.21332651E-02 -0.24063270E-03 
    4    5    0.29866111E-04 -0.28431094E-04 
    5    5   -0.72558814E-03 -0.16001026E-05 
    6    5    0.27257940E-03 -0.13251251E-04 
    7    5    0.71457648E-03 -0.33446636E-04 
    8    5    0.12692339E-02 -0.44568271E-04 
    9    5   -0.63863248E-03 -0.16766261E-04 
    1    6    0.60612909E-03 -0.97862449E-04 
    2    6   -0.27155459E-03  0.55346573E-05 
    3    6    0.32573824E-02 -0.15617060E-03 
    4    6   -0.60243881E-03  0.14932432E-03 
    5    6   -0.10366240E-02 -0.10653584E-04 
    6    6    0.94369190E-04  0.36392607E-04 
    7    6   -0.93204589E-03  0.10520408E-04 
    8    6    0.82316417E-04  0.35334856E-05 
    9    6   -0.82284480E-03 -0.10119410E-04 
    1    7    0.40948502E-02 -0.57284338E-03 
    2    7   -0.12374199E-02 -0.77387842E-04 
    3    7    0.16099564E-02 -0.10244615E-03 
    4    7    0.11938373E-02 -0.24977817E-03 
    5    7    0.11319624E-02  0.68446669E-04 
    6    7    0.39118416E-04 -0.49710853E-04 
    7    7    0.69624667E-04 -0.73474270E-05 
    8    7    0.43537384E-03 -0.44401432E-05 
    9    7    0.50532576E-04 -0.12615674E-04 
    1    8   -0.43888910E-03  0.12306023E-03 
    2    8   -0.14382620E-03  0.16073889E-05 
    3    8    0.93111395E-03 -0.54477357E-04 
    4    8    0.35958222E-03 -0.61152822E-04 
    5    8    0.66371781E-03  0.35871489E-04 
    6    8   -0.56677659E-04 -0.68534266E-05 
    7    8   -0.34846930E-03 -0.11689032E-04 
    8    8   -0.16345434E-03  0.50879326E-05 
    9    8   -0.19595012E-04 -0.24976595E-05 
    1    9    0.10203255E-02 -0.27937223E-03 
    2    9   -0.27415108E-03  0.57111906E-05 
    3    9   -0.19984354E-02  0.62434215E-04 
    4    9    0.32762589E-02 -0.88779127E-03 
    5    9   -0.17793445E-02 -0.17245507E-04 
    6    9   -0.33516803E-03 -0.36847278E-04 
    7    9    0.30096227E-02 -0.16515759E-05 
    8    9    0.10964613E-02 -0.26151040E-04 
    9    9    0.13773592E-02  0.34204617E-04 

   -3    0    0
    1    1    0.80390517E-02 -0.14816500E-10 
    2    1   -0.31811398E-02 -0.83364778E-03 
    3    1   -0.64376340E-03 -0.28998209E-03 
    4    1    0.69496585E-02 -0.74769399E-03 
    5    1   -0.24153194E-03 -0.94986977E-04 
    6    1   -0.13217416E-02 -0.21256029E-03 
    7    1    0.25568225E-03 -0.11295954E-04 
    8    1   -0.17948946E-03 -0.84608882E-04 
    9    1   -0.48598106E-03 -0.23769933E-04 
    1    2   -0.31813542E-02  0.83369170E-03 
    2    2    0.81227991E-02  0.19775634E-09 
    3    2   -0.55136914E-03  0.16950769E-03 
    4    2   -0.55749992E-02  0.20128741E-02 
    5    2    0.84642553E-03 -0.13169944E-03 
    6    2    0.14118837E-02 -0.32616226E-04 
    7    2   -0.20868318E-02  0.75546617E-04 
    8    2   -0.11572150E-02  0.12851681E-04 
    9    2   -0.37497102E-02  0.93369448E-04 
    1    3   -0.64378136E-03  0.28998366E-03 
    2    3   -0.55117201E-03 -0.16948486E-03 
    3    3    0.18834745E-02 -0.63549589E-10 
    4    3    0.52667547E-02 -0.77618104E-03 
    5    3   -0.17193591E-02 -0.12856398E-03 
    6    3   -0.15378307E-02 -0.12276229E-03 
    7    3    0.48421331E-03  0.29742387E-04 
    8    3    0.12833271E-03  0.13155459E-05 
    9    3    0.20321033E-02  0.15024934E-03 
    1    4    0.69496910E-02  0.74769718E-03 
    2    4   -0.55752057E-02 -0.20129380E-02 
    3    4    0.52667580E-02  0.77618163E-03 
    4    4    0.83910033E-02  0.89161531E-11 
    5    4    0.24379955E-02  0.71671356E-03 
    6    4   -0.11478913E-02 -0.32096049E-03 
    7    4   -0.15044955E-02 -0.47392961E-03 
    8    4   -0.17930871E-03 -0.11653054E-03 
    9    4   -0.18565209E-03 -0.21629575E-04 
    1    5   -0.24148943E-03  0.94979245E-04 
    2    5    0.84658184E-03  0.13170310E-03 
    3    5   -0.17193518E-02  0.12856336E-03 
    4    5    0.24379718E-02 -0.71670694E-03 
    5    5    0.31237942E-02  0.33246321E-10 
    6    5    0.42885664E-03 -0.18036600E-04 
    7    5   -0.17098097E-03 -0.28774244E-04 
    8    5    0.71586312E-03 -0.30081343E-04 
    9    5   -0.70660238E-03 -0.22563379E-04 
    1    6   -0.13217055E-02  0.21255465E-03 
    2    6    0.14119821E-02  0.32620540E-04 
    3    6   -0.15378257E-02  0.12276182E-03 
    4    6   -0.11478925E-02  0.32096080E-03 
    5    6    0.42884916E-03  0.18036502E-04 
    6    6    0.12876106E-02 -0.34392454E-10 
    7    6    0.95009716E-03  0.31630031E-04 
    8    6    0.60543589E-03  0.66474223E-05 
    9    6   -0.17950097E-02  0.14980161E-04 
    1    7    0.25566048E-03  0.11299349E-04 
    2    7   -0.20869695E-02 -0.75551875E-04 
    3    7    0.48421224E-03 -0.29742217E-04 
    4    7   -0.15044879E-02  0.47392773E-03 
    5    7   -0.17098043E-03  0.28774061E-04 
    6    7    0.95008768E-03 -0.31630053E-04 
    7    7    0.13605091E-02  0.62276470E-10 
    8    7    0.12765740E-02 -0.20294215E-04 
    9    7   -0.69286577E-03  0.18422512E-05 
    1    8   -0.17944667E-03  0.84602698E-04 
    2    8   -0.11572251E-02 -0.12852152E-04 
    3    8    0.12828631E-03 -0.13128375E-05 
    4    8   -0.17930340E-03  0.11652927E-03 
    5    8    0.71587295E-03  0.30081657E-04 
    6    8    0.60542487E-03 -0.66475564E-05 
    7    8    0.12765733E-02  0.20294203E-04 
    8    8    0.12454069E-02  0.52220512E-10 
    9    8   -0.31249082E-04  0.42734438E-05 
    1    9   -0.48598834E-03  0.23771220E-04 
    2    9   -0.37498838E-02 -0.93375855E-04 
    3    9    0.20320998E-02 -0.15024912E-03 
    4    9   -0.18568328E-03  0.21637911E-04 
    5    9   -0.70656877E-03  0.22563933E-04 
    6    9   -0.17949940E-02 -0.14980213E-04 
    7    9   -0.69288732E-03 -0.18421973E-05 
    8    9   -0.31249173E-04 -0.42734893E-05 
    9    9    0.27295344E-02 -0.11183858E-09 

   -3    1   -4
    1    1   -0.82860649E-04  0.30188082E-04 
    2    1   -0.22059878E-02 -0.70206611E-03 
    3    1   -0.19159041E-02 -0.44295640E-03 
    4    1    0.80881263E-02 -0.77443251E-03 
    5    1    0.10183123E-02  0.17374544E-03 
    6    1   -0.19710378E-02 -0.30823181E-03 
    7    1   -0.81829986E-03 -0.12048574E-03 
    8    1   -0.15765353E-02 -0.24427222E-03 
    9    1    0.17790266E-02  0.30635433E-03 
    1    2   -0.18032773E-02  0.56792881E-03 
    2    2   -0.45465532E-03 -0.62531877E-05 
    3    2    0.69162368E-02 -0.78556341E-03 
    4    2   -0.17347343E-02  0.75323110E-03 
    5    2   -0.20574182E-02  0.54808940E-04 
    6    2   -0.45231179E-03  0.66240414E-06 
    7    2   -0.16878838E-02  0.52660170E-04 
    8    2    0.15638156E-02 -0.10841253E-03 
    9    2   -0.80134669E-03  0.44442882E-04 
    1    3   -0.34863735E-02  0.45653549E-03 
    2    3    0.61103155E-02  0.71882452E-03 
    3    3   -0.60760612E-03  0.29238558E-04 
    4    3   -0.22134340E-02  0.61729878E-03 
    5    3    0.22027544E-03  0.18459291E-04 
    6    3    0.16015455E-02  0.90536351E-04 
    7    3   -0.10905067E-02 -0.11425206E-03 
    8    3    0.27097737E-03  0.38191568E-04 
    9    3   -0.15869745E-02 -0.11474334E-03 
    1    4    0.65335881E-02  0.66145621E-03 
    2    4   -0.33654090E-02 -0.12075020E-02 
    3    4   -0.20152338E-02 -0.63351183E-03 
    4    4   -0.21203556E-03 -0.60041425E-05 
    5    4    0.16062688E-02  0.46275191E-03 
    6    4   -0.12250700E-02 -0.30086660E-03 
    7    4    0.12002261E-02  0.33243094E-03 
    8    4   -0.28178410E-03 -0.51255618E-04 
    9    4   -0.52562614E-03 -0.14129417E-03 
    1    5    0.12488226E-02 -0.18826790E-03 
    2    5   -0.16148750E-02 -0.63656960E-04 
    3    5    0.46103114E-03 -0.63470933E-04 
    4    5    0.18742432E-02 -0.52152015E-03 
    5    5    0.17882323E-04  0.97879795E-05 
    6    5   -0.68181322E-03  0.10128039E-04 
    7    5   -0.48564018E-03  0.43415308E-06 
    8    5    0.18342885E-03 -0.12533010E-04 
    9    5    0.10392708E-02 -0.35742889E-04 
    1    6   -0.16477104E-02  0.26891313E-03 
    2    6   -0.24142460E-03 -0.66976867E-05 
    3    6    0.20013284E-02 -0.11484383E-03 
    4    6   -0.98857618E-03  0.27645853E-03 
    5    6   -0.11622611E-02 -0.22692539E-04 
    6    6    0.55130795E-04 -0.10491095E-04 
    7    6   -0.95559528E-03  0.13480630E-04 
    8    6    0.30145669E-03 -0.51251183E-05 
    9    6    0.11355929E-02  0.18416796E-04 
    1    7   -0.61664711E-03  0.11292332E-03 
    2    7   -0.15686774E-02 -0.63676690E-04 
    3    7   -0.76946167E-03  0.67460114E-04 
    4    7    0.17289319E-02 -0.44668758E-03 
    5    7   -0.11487767E-02 -0.58436717E-05 
    6    7   -0.10246488E-02 -0.16477298E-04 
    7    7   -0.36908166E-04  0.10476920E-04 
    8    7   -0.30703941E-03  0.53583760E-05 
    9    7    0.13140167E-02 -0.83447908E-06 
    1    8    0.35257798E-03 -0.29230744E-04 
    2    8   -0.30869326E-03 -0.29265247E-05 
    3    8   -0.16089549E-02  0.79642536E-04 
    4    8    0.15706714E-02 -0.41085158E-03 
    5    8    0.36290809E-03  0.86593753E-05 
    6    8    0.13696300E-03  0.15123661E-04 
    7    8   -0.16032824E-03  0.88631233E-05 
    8    8   -0.16285405E-02 -0.69801436E-06 
    9    8    0.30134418E-03  0.83058162E-05 
    1    9    0.11425448E-02 -0.19803638E-03 
    2    9   -0.11905779E-02 -0.27510192E-04 
    3    9   -0.17296576E-02  0.13839291E-03 
    4    9   -0.76090723E-03  0.18668603E-03 
    5    9    0.94574966E-03  0.36483938E-04 
    6    9    0.44442217E-03 -0.11142238E-04 
    7    9    0.61368355E-03  0.27064245E-05 
    8    9    0.17956507E-03  0.10999367E-04 
    9    9   -0.38518485E-04 -0.12891720E-04 

   -3    1   -3
    1    1    0.83330775E-02  0.25638927E-04 
    2    1   -0.13640276E-03 -0.19277334E-03 
    3    1   -0.16893955E-02 -0.33576077E-03 
    4    1    0.38571128E-02 -0.31356479E-03 
    5    1    0.22514184E-02  0.39559671E-03 
    6    1    0.62048749E-03  0.88256144E-04 
    7    1    0.12712525E-02  0.22711178E-03 
    8    1   -0.78059264E-03 -0.12356488E-03 
    9    1    0.51564846E-03  0.68777143E-04 
    1    2   -0.17859289E-01  0.40167556E-02 
    2    2    0.27605303E-02  0.95708818E-05 
    3    2    0.51941363E-02 -0.64365106E-03 
    4    2   -0.39285684E-02  0.13985940E-02 
    5    2    0.15873755E-02  0.18411196E-04 
    6    2   -0.68428432E-03  0.43135102E-04 
    7    2    0.25481150E-02 -0.11801992E-03 
    8    2   -0.18154169E-02  0.83957632E-04 
    9    2   -0.15748382E-02  0.56912843E-04 
    1    3   -0.76381585E-02  0.80673602E-03 
    2    3    0.34793865E-02  0.41135459E-03 
    3    3    0.62960155E-02  0.13983110E-04 
    4    3   -0.71427531E-03  0.29856147E-03 
    5    3   -0.22072228E-02 -0.20218250E-03 
    6    3    0.71107239E-03  0.67901023E-04 
    7    3   -0.17720854E-02 -0.15092602E-03 
    8    3    0.81333596E-04  0.12390822E-04 
    9    3    0.45302398E-04  0.73398785E-05 
    1    4   -0.27062556E-02 -0.68229409E-04 
    2    4   -0.21858653E-02 -0.81695910E-03 
    3    4   -0.23126365E-02 -0.75851412E-03 
    4    4    0.44997911E-02 -0.20082153E-04 
    5    4    0.45814168E-02  0.13860790E-02 
    6    4    0.15838937E-03  0.22095240E-04 
    7    4    0.21040188E-02  0.61394401E-03 
    8    4    0.31350856E-03  0.11692287E-03 
    9    4    0.74480477E-03  0.16445093E-03 
    1    5   -0.59389390E-02  0.11233776E-02 
    2    5   -0.10524785E-02 -0.35450227E-04 
    3    5   -0.50302404E-02  0.42809449E-03 
    4    5    0.11020322E-03 -0.71878285E-05 
    5    5    0.99736215E-04  0.18148140E-04 
    6    5    0.42110122E-03 -0.19215844E-04 
    7    5    0.10073263E-02 -0.28309384E-04 
    8    5   -0.42756871E-04  0.53639421E-06 
    9    5    0.64735187E-03 -0.33295586E-04 
    1    6   -0.36026805E-02  0.53910432E-03 
    2    6    0.65494878E-03  0.39842141E-04 
    3    6    0.24663080E-02 -0.13304923E-03 
    4    6   -0.10989471E-02  0.27929109E-03 
    5    6   -0.10478801E-02 -0.35177526E-04 
    6    6    0.25712889E-03  0.63880334E-05 
    7    6   -0.84465064E-03 -0.69821879E-05 
    8    6   -0.38411674E-03 -0.22557271E-05 
    9    6    0.12937141E-03  0.16725534E-04 
    1    7   -0.14103084E-02  0.27346014E-03 
    2    7   -0.29094846E-03 -0.91773751E-05 
    3    7   -0.29586544E-03  0.17020607E-04 
    4    7    0.14213633E-02 -0.34939685E-03 
    5    7   -0.72336064E-03  0.14583537E-04 
    6    7   -0.24825039E-03 -0.34942464E-04 
    7    7    0.15349779E-03  0.80105740E-05 
    8    7   -0.11925636E-03 -0.67781092E-06 
    9    7   -0.33091882E-04 -0.11042462E-04 
    1    8    0.32773611E-02 -0.40676132E-03 
    2    8    0.14739810E-02  0.88378553E-04 
    3    8   -0.23796224E-03  0.22828372E-04 
    4    8   -0.25848120E-03  0.44402653E-04 
    5    8   -0.10043309E-03  0.57002678E-05 
    6    8   -0.32765517E-03 -0.11055441E-04 
    7    8   -0.13492646E-03  0.12133050E-06 
    8    8    0.11565134E-02 -0.55828253E-05 
    9    8    0.48053066E-04  0.50401335E-05 
    1    9    0.19881967E-02 -0.37762429E-03 
    2    9   -0.98575720E-03 -0.34119972E-04 
    3    9    0.11108012E-02 -0.56333463E-04 
    4    9    0.19500565E-02 -0.52654453E-03 
    5    9    0.35982981E-03  0.14149497E-04 
    6    9   -0.49527526E-03 -0.18246950E-04 
    7    9   -0.10140798E-02 -0.32418361E-05 
    8    9    0.50035158E-04  0.94036305E-05 
    9    9    0.13021136E-02 -0.11600933E-04 

   -3    1   -2
    1    1    0.89027534E-02 -0.25260452E-04 
    2    1    0.19423103E-02  0.23709516E-03 
    3    1    0.15682235E-03 -0.20521235E-03 
    4    1   -0.10845717E-02  0.11525280E-03 
    5    1    0.35611039E-02  0.61851664E-03 
    6    1   -0.33721330E-03 -0.94658236E-04 
    7    1    0.67024053E-03  0.11327644E-03 
    8    1    0.10933534E-02  0.15676413E-03 
    9    1   -0.24689874E-02 -0.43348351E-03 
    1    2    0.56718106E-01 -0.11453690E-01 
    2    2    0.89195383E-02 -0.48762009E-04 
    3    2   -0.10020408E-01  0.12231588E-02 
    4    2    0.95344857E-03 -0.59217161E-04 
    5    2    0.98346692E-02 -0.28220232E-03 
    6    2   -0.20234917E-02  0.16869592E-03 
    7    2    0.26662907E-03 -0.99050432E-04 
    8    2    0.85023355E-02 -0.52016064E-03 
    9    2   -0.69885971E-02  0.29040572E-03 
    1    3    0.14135286E-02  0.11630043E-03 
    2    3   -0.14755943E-02 -0.18943267E-03 
    3    3    0.34681848E-02  0.10275787E-03 
    4    3   -0.37308243E-02  0.84417857E-03 
    5    3   -0.14789344E-02 -0.12632640E-03 
    6    3   -0.28056698E-03  0.48384350E-04 
    7    3   -0.27529993E-03 -0.24441515E-04 
    8    3   -0.12468398E-02 -0.58410078E-04 
    9    3   -0.89749600E-03 -0.69571507E-04 
    1    4   -0.88380201E-02 -0.54874011E-03 
    2    4   -0.23319548E-03 -0.27902628E-03 
    3    4   -0.15643142E-03 -0.32147090E-03 
    4    4    0.44844997E-02  0.10775544E-03 
    5    4   -0.64133017E-03 -0.83298574E-04 
    6    4    0.53818616E-03  0.28036386E-04 
    7    4   -0.36518687E-02 -0.88462512E-03 
    8    4   -0.13561108E-02 -0.28024364E-03 
    9    4    0.14714745E-02  0.31640102E-03 
    1    5    0.51276091E-02 -0.81627918E-03 
    2    5    0.20670149E-02  0.66947895E-04 
    3    5   -0.14502940E-02  0.12984506E-03 
    4    5    0.94245719E-03 -0.23282552E-03 
    5    5    0.21999931E-02  0.77355960E-05 
    6    5   -0.21033672E-03 -0.28290521E-04 
    7    5   -0.10320410E-02  0.41591218E-05 
    8    5   -0.16848679E-04  0.13826793E-04 
    9    5    0.55214306E-03 -0.46629395E-04 
    1    6    0.10960508E-02 -0.37441811E-03 
    2    6    0.12470531E-02  0.68925440E-04 
    3    6   -0.39535285E-02  0.38777115E-03 
    4    6   -0.48166191E-03  0.11400759E-03 
    5    6    0.75625120E-03 -0.55311912E-04 
    6    6   -0.55140382E-03  0.35659275E-04 
    7    6    0.94869130E-03 -0.12707771E-04 
    8    6   -0.29026369E-04 -0.23894503E-05 
    9    6    0.58313458E-03  0.37787507E-04 
    1    7   -0.25986303E-02  0.53949773E-03 
    2    7   -0.45322389E-03 -0.21349542E-04 
    3    7    0.32087182E-03 -0.64577519E-04 
    4    7   -0.45711222E-03  0.18726842E-03 
    5    7   -0.91066386E-04  0.31594126E-04 
    6    7    0.43817432E-03 -0.67233950E-04 
    7    7   -0.26634344E-03  0.27991560E-05 
    8    7    0.21447512E-03  0.24677293E-05 
    9    7    0.35360452E-03 -0.22763619E-05 
    1    8   -0.78738102E-02  0.11803280E-02 
    2    8   -0.10185805E-02 -0.65919449E-04 
    3    8    0.13649953E-02 -0.17118966E-03 
    4    8    0.12594454E-02 -0.30906556E-03 
    5    8   -0.15847755E-02 -0.31193558E-04 
    6    8   -0.21346686E-03 -0.11893972E-04 
    7    8    0.18177207E-03  0.14843339E-04 
    8    8    0.41886876E-03 -0.10865027E-04 
    9    8    0.20020609E-03  0.21534467E-04 
    1    9   -0.10634380E-01  0.18900849E-02 
    2    9   -0.40882049E-02 -0.13359765E-03 
    3    9    0.38152951E-03 -0.47785320E-04 
    4    9    0.13936124E-02 -0.35053570E-03 
    5    9    0.64569583E-03  0.80222252E-04 
    6    9   -0.11941030E-03 -0.46078139E-04 
    7    9   -0.58968436E-03  0.41061320E-04 
    8    9   -0.16871088E-02  0.58123836E-04 
    9    9    0.22217602E-02 -0.34232387E-04 

   -3    1   -1
    1    1    0.66411731E-02 -0.17087335E-03 
    2    1    0.21111444E-02  0.27883735E-03 
    3    1    0.23995731E-03 -0.24308157E-03 
    4    1    0.59802521E-02 -0.63027406E-03 
    5    1    0.20560915E-02  0.34593076E-03 
    6    1   -0.11784417E-02 -0.20668794E-03 
    7    1    0.18618322E-02  0.29065566E-03 
    8    1    0.21518679E-02  0.31612174E-03 
    9    1   -0.22158168E-02 -0.36977194E-03 
    1    2    0.37522151E-01 -0.84600284E-02 
    2    2    0.72686673E-02 -0.56580500E-04 
    3    2   -0.16729636E-02  0.35606265E-03 
    4    2   -0.61147393E-02  0.19115995E-02 
    5    2    0.18280497E-02 -0.34578336E-03 
    6    2    0.28210150E-03  0.16867281E-03 
    7    2    0.26079976E-02 -0.27241933E-03 
    8    2   -0.27742190E-02 -0.41407692E-04 
    9    2   -0.52565087E-02  0.20968570E-03 
    1    3   -0.16543489E-02  0.46765090E-03 
    2    3    0.41671587E-02  0.46426374E-03 
    3    3    0.30200570E-02  0.18283088E-03 
    4    3   -0.49389880E-02  0.10729219E-02 
    5    3    0.34029326E-02  0.32175145E-03 
    6    3    0.28210738E-02  0.25256577E-03 
    7    3   -0.14299457E-02 -0.12506025E-03 
    8    3   -0.11011379E-02 -0.58971361E-04 
    9    3   -0.19501329E-02 -0.17319485E-03 
    1    4    0.66736912E-02  0.81607802E-03 
    2    4   -0.11765598E-02 -0.58218448E-03 
    3    4    0.24345405E-02  0.14539011E-03 
    4    4    0.81817638E-02  0.62551518E-04 
    5    4    0.40489903E-02  0.12349128E-02 
    6    4    0.51627736E-04 -0.87056257E-04 
    7    4    0.24694216E-02  0.65107775E-03 
    8    4    0.51666227E-02  0.12624252E-02 
    9    4    0.34885552E-03  0.10522362E-03 
    1    5   -0.95635475E-02  0.18551978E-02 
    2    5   -0.10314659E-02  0.62282201E-05 
    3    5   -0.59470572E-04 -0.40889234E-04 
    4    5    0.25163717E-02 -0.67374416E-03 
    5    5   -0.31500859E-02  0.36752007E-04 
    6    5   -0.12194919E-02 -0.10282528E-04 
    7    5    0.36852560E-04 -0.18334968E-04 
    8    5   -0.22792520E-04  0.13052857E-04 
    9    5    0.52792102E-03 -0.47018169E-04 
    1    6    0.32617460E-02 -0.69222427E-03 
    2    6    0.15540303E-03  0.62295669E-05 
    3    6   -0.12587755E-02  0.13831267E-03 
    4    6   -0.24500189E-02  0.59209066E-03 
    5    6   -0.53713979E-04 -0.58769147E-04 
    6    6   -0.72040618E-03  0.47337973E-04 
    7    6   -0.42573551E-03  0.30372187E-06 
    8    6   -0.63616920E-03 -0.82818975E-05 
    9    6    0.86964887E-03  0.35929505E-04 
    1    7   -0.12410810E-02  0.27041240E-03 
    2    7   -0.36363950E-03 -0.35538171E-04 
    3    7   -0.25426836E-03 -0.24107520E-04 
    4    7    0.74482771E-03 -0.13932891E-03 
    5    7   -0.15428178E-02 -0.12061390E-04 
    6    7   -0.10867180E-02 -0.42998119E-04 
    7    7    0.13498963E-03  0.15697749E-04 
    8    7    0.25163161E-03 -0.36485515E-05 
    9    7    0.62903382E-03 -0.21745728E-05 
    1    8   -0.74867452E-02  0.10934007E-02 
    2    8   -0.84267318E-04 -0.31402486E-04 
    3    8   -0.68222834E-02  0.36771345E-03 
    4    8   -0.18139809E-02  0.47619437E-03 
    5    8   -0.92366981E-03 -0.25069549E-04 
    6    8   -0.45462294E-03 -0.12356646E-04 
    7    8   -0.39517510E-04  0.27315637E-05 
    8    8   -0.17829473E-02 -0.55813961E-05 
    9    8    0.16580818E-02  0.57430154E-04 
    1    9   -0.67022353E-02  0.13113514E-02 
    2    9   -0.81542518E-03  0.15384947E-04 
    3    9   -0.35374030E-02  0.27691530E-03 
    4    9    0.77550112E-02 -0.19595784E-02 
    5    9    0.11808954E-02  0.10602912E-03 
    6    9   -0.17605098E-02 -0.53617688E-04 
    7    9    0.79315495E-03  0.33028960E-04 
    8    9    0.93841021E-03  0.48743976E-04 
    9    9    0.31899280E-02 -0.24640805E-04 

   -3    1    0
    1    1    0.19460944E-02 -0.10355933E-03 
    2    1   -0.16938226E-03 -0.27439122E-03 
    3    1    0.15484158E-02 -0.18623820E-03 
    4    1    0.26342667E-02 -0.38751783E-03 
    5    1    0.10427252E-02  0.18253367E-03 
    6    1   -0.68923288E-03 -0.10796564E-03 
    7    1   -0.12628811E-02 -0.23586858E-03 
    8    1    0.11718084E-02  0.13638269E-03 
    9    1    0.28799368E-03  0.52596849E-04 
    1    2   -0.54335524E-02  0.12230592E-02 
    2    2    0.62632238E-02 -0.33475103E-04 
    3    2    0.18836942E-02 -0.27464380E-03 
    4    2   -0.90866183E-02  0.29453313E-02 
    5    2    0.17627443E-02 -0.18778815E-03 
    6    2    0.47441895E-02 -0.17267391E-03 
    7    2   -0.41542083E-03  0.10722626E-04 
    8    2    0.27868923E-02 -0.29983653E-03 
    9    2   -0.14582057E-02  0.29293464E-04 
    1    3    0.13131302E-02  0.13736438E-03 
    2    3    0.87760586E-03  0.51657486E-05 
    3    3    0.22403165E-02  0.67665083E-04 
    4    3    0.29632953E-03  0.22307907E-03 
    5    3   -0.35086056E-03 -0.20679544E-04 
    6    3   -0.10825513E-02 -0.82823005E-04 
    7    3   -0.54443564E-03 -0.21269985E-04 
    8    3    0.71264703E-04  0.20810633E-04 
    9    3    0.29473890E-02  0.23131031E-03 
    1    4    0.22666702E-02  0.31244956E-03 
    2    4   -0.43540056E-02 -0.15399267E-02 
    3    4   -0.53054250E-04 -0.24012434E-03 
    4    4    0.22318046E-02 -0.87596734E-04 
    5    4    0.21250084E-02  0.66334474E-03 
    6    4   -0.83002948E-03 -0.22278449E-03 
    7    4   -0.64387000E-03 -0.22857422E-03 
    8    4    0.43374100E-04 -0.15986146E-04 
    9    4   -0.16898107E-02 -0.46025860E-03 
    1    5    0.41096386E-03  0.24548348E-04 
    2    5    0.48603991E-03  0.17344666E-04 
    3    5    0.10468539E-02 -0.14910580E-03 
    4    5    0.15667723E-02 -0.43253952E-03 
    5    5    0.64120939E-03  0.37058510E-04 
    6    5   -0.41083048E-03 -0.53594341E-05 
    7    5   -0.10460006E-02 -0.67984789E-05 
    8    5   -0.13804892E-02  0.43172699E-04 
    9    5   -0.73494921E-03 -0.29387628E-04 
    1    6   -0.27481963E-02  0.36949730E-03 
    2    6    0.94208962E-03  0.41955977E-05 
    3    6    0.96761546E-03 -0.78583758E-04 
    4    6   -0.20987909E-02  0.56053928E-03 
    5    6   -0.14920505E-02 -0.64743277E-04 
    6    6    0.62425123E-03  0.84177438E-05 
    7    6   -0.54269663E-03  0.41954536E-04 
    8    6   -0.15974092E-02  0.17952464E-04 
    9    6    0.50499538E-03  0.28297035E-04 
    1    7   -0.39040526E-02  0.64097994E-03 
    2    7   -0.12192683E-02 -0.44340818E-04 
    3    7   -0.16149948E-02  0.95275433E-04 
    4    7    0.59652102E-03 -0.14813772E-03 
    5    7   -0.61826581E-03  0.40531801E-05 
    6    7   -0.40855853E-03 -0.11816849E-04 
    7    7   -0.71590819E-03  0.64060815E-05 
    8    7   -0.88177872E-03  0.14311978E-04 
    9    7    0.51249208E-03 -0.38257645E-05 
    1    8   -0.51568726E-02  0.72618863E-03 
    2    8   -0.11797482E-02 -0.75081327E-04 
    3    8   -0.71382481E-03  0.33093571E-05 
    4    8   -0.14028597E-02  0.40005529E-03 
    5    8   -0.70142152E-03 -0.48342035E-04 
    6    8   -0.45163201E-03 -0.17232588E-04 
    7    8   -0.16954527E-02 -0.14171625E-04 
    8    8   -0.60653385E-03 -0.12125269E-04 
    9    8    0.12726501E-02  0.40278687E-04 
    1    9   -0.44135459E-04  0.22776195E-04 
    2    9   -0.18194140E-02 -0.31998118E-04 
    3    9   -0.45232071E-02  0.36870291E-03 
    4    9    0.34299834E-02 -0.85431938E-03 
    5    9   -0.51914163E-04  0.41711827E-04 
    6    9   -0.16329077E-02 -0.37018301E-04 
    7    9    0.72328934E-03  0.86914646E-05 
    8    9    0.48223087E-03  0.27791057E-04 
    9    9    0.15751460E-02 -0.13197332E-05 

   -3    1    1
    1    1    0.18524439E-03  0.26708141E-04 
    2    1   -0.58835932E-02 -0.15152668E-02 
    3    1    0.47042615E-03 -0.25856750E-03 
    4    1    0.55088337E-02 -0.57565646E-03 
    5    1    0.10188573E-02  0.19382864E-03 
    6    1   -0.22070417E-02 -0.33492471E-03 
    7    1   -0.42057131E-03 -0.75549064E-04 
    8    1   -0.59777923E-03 -0.10417756E-03 
    9    1    0.18543244E-02  0.34474322E-03 
    1    2    0.10232828E-02 -0.36562510E-04 
    2    2    0.66830409E-02 -0.43222166E-04 
    3    2    0.23521376E-02 -0.32854276E-03 
    4    2   -0.34127152E-02  0.12501195E-02 
    5    2    0.11857014E-02 -0.75812771E-04 
    6    2    0.18520361E-02 -0.93425661E-04 
    7    2   -0.14620046E-02  0.47107951E-04 
    8    2    0.57334307E-03 -0.53904307E-04 
    9    2   -0.19910431E-02  0.82326916E-04 
    1    3    0.75259718E-03  0.83930638E-04 
    2    3    0.47590142E-03  0.20714062E-04 
    3    3    0.30019834E-02  0.30254516E-04 
    4    3    0.11829524E-02 -0.17084846E-04 
    5    3    0.26877769E-03  0.24670713E-04 
    6    3    0.11027675E-02  0.75504460E-04 
    7    3    0.37459562E-03  0.10552393E-04 
    8    3   -0.53720639E-03 -0.11576376E-04 
    9    3    0.84352257E-03  0.55872168E-04 
    1    4    0.32673943E-02  0.32877036E-03 
    2    4   -0.22937464E-02 -0.87598049E-03 
    3    4    0.14465050E-02  0.25572545E-04 
    4    4    0.37886851E-02 -0.35832846E-04 
    5    4    0.11579628E-02  0.34572575E-03 
    6    4    0.50045979E-04  0.23453739E-04 
    7    4    0.29780685E-03  0.61813723E-04 
    8    4    0.96507364E-03  0.22104135E-03 
    9    4    0.37683840E-05 -0.14277154E-04 
    1    5   -0.19271556E-03  0.78679060E-04 
    2    5   -0.22815249E-02 -0.97803528E-04 
    3    5   -0.12943769E-02  0.85923217E-04 
    4    5    0.16937734E-02 -0.45497747E-03 
    5    5   -0.95044412E-03  0.11973288E-04 
    6    5   -0.82283753E-03  0.11559026E-04 
    7    5   -0.29182999E-03 -0.17112520E-04 
    8    5   -0.75041640E-03  0.24306810E-04 
    9    5    0.30389606E-03 -0.14421800E-04 
    1    6   -0.93095527E-03  0.14877973E-03 
    2    6    0.17380339E-02  0.46292409E-04 
    3    6   -0.18465902E-02  0.13570798E-03 
    4    6   -0.20669292E-03  0.78687520E-04 
    5    6   -0.22584258E-03 -0.11681572E-04 
    6    6    0.38516881E-03 -0.10344163E-04 
    7    6    0.41051781E-03  0.24789170E-04 
    8    6   -0.25739509E-03  0.10039163E-04 
    9    6   -0.40125619E-03  0.33488316E-04 
    1    7   -0.31291137E-04  0.16461862E-04 
    2    7   -0.67161916E-03 -0.29773141E-04 
    3    7   -0.23154217E-03  0.20316498E-04 
    4    7   -0.47219005E-04  0.32754635E-04 
    5    7    0.23552940E-03  0.21628614E-04 
    6    7   -0.74871710E-03 -0.10063748E-04 
    7    7    0.14800406E-03  0.14556794E-04 
    8    7   -0.14721816E-03  0.11122601E-04 
    9    7    0.10398794E-02  0.17196290E-04 
    1    8   -0.35074089E-03  0.50373603E-04 
    2    8   -0.17341583E-02 -0.74684329E-04 
    3    8    0.16917876E-02 -0.13599491E-03 
    4    8   -0.11886538E-02  0.30812284E-03 
    5    8   -0.75966448E-03 -0.28084190E-04 
    6    8   -0.67220601E-04  0.40495342E-05 
    7    8   -0.25089574E-03  0.64249149E-05 
    8    8   -0.34323855E-03 -0.20229459E-05 
    9    8    0.53243195E-03  0.12349082E-04 
    1    9    0.24778365E-03 -0.59169381E-04 
    2    9   -0.82299790E-03 -0.80801336E-05 
    3    9   -0.39157989E-03  0.42683967E-04 
    4    9    0.27117803E-03 -0.57286679E-04 
    5    9   -0.16059211E-03  0.20926403E-04 
    6    9   -0.10111958E-02 -0.12207823E-04 
    7    9    0.11086857E-02  0.72018132E-05 
    8    9   -0.13450427E-04  0.42187801E-05 
    9    9   -0.29952022E-03  0.20266891E-05 

   -3    2   -4
    1    1    0.66064059E-02  0.62381807E-04 
    2    1    0.27727360E-03 -0.19761873E-03 
    3    1   -0.33553562E-02 -0.56586197E-03 
    4    1    0.29602449E-02 -0.22886188E-03 
    5    1    0.16886238E-02  0.28420154E-03 
    6    1   -0.16170592E-02 -0.23844111E-03 
    7    1    0.14661901E-02  0.24809405E-03 
    8    1   -0.46123325E-03 -0.64037672E-04 
    9    1   -0.12614166E-02 -0.23510481E-03 
    1    2   -0.54547801E-02  0.14540423E-02 
    2    2   -0.61451965E-03 -0.72674276E-05 
    3    2    0.41068105E-02 -0.47038668E-03 
    4    2    0.53310709E-03  0.69368350E-04 
    5    2   -0.20874639E-02  0.85395582E-04 
    6    2   -0.59525005E-04 -0.37375217E-05 
    7    2   -0.18025902E-02  0.42432747E-04 
    8    2    0.63339203E-03 -0.51645800E-04 
    9    2   -0.66378670E-03  0.47171375E-04 
    1    3   -0.21821327E-02  0.34410839E-03 
    2    3    0.29407133E-02  0.33265935E-03 
    3    3    0.32849975E-02  0.65883850E-04 
    4    3    0.13406314E-02 -0.36060390E-04 
    5    3   -0.12817615E-03 -0.11431882E-04 
    6    3    0.45417493E-03  0.45026025E-04 
    7    3    0.17662451E-03 -0.13819922E-04 
    8    3   -0.98797752E-03 -0.59230850E-04 
    9    3   -0.11923492E-02 -0.54036031E-04 
    1    4    0.57243329E-03  0.10404657E-03 
    2    4    0.46926484E-03 -0.71546803E-04 
    3    4    0.17500622E-02  0.10996233E-03 
    4    4    0.35259688E-02 -0.49867349E-04 
    5    4   -0.75495462E-03 -0.23193735E-03 
    6    4    0.30772864E-03  0.11214737E-03 
    7    4    0.94610142E-03  0.25659027E-03 
    8    4    0.38806517E-03  0.11981077E-03 
    9    4    0.25653282E-04  0.76098380E-05 
    1    5    0.10585327E-02 -0.16128759E-03 
    2    5   -0.49710518E-03 -0.46629854E-04 
    3    5   -0.46198160E-03  0.33825772E-04 
    4    5    0.43251121E-03 -0.96416416E-04 
    5    5   -0.30422530E-03 -0.74862129E-05 
    6    5   -0.10934843E-02  0.29662760E-04 
    7    5    0.98666283E-03 -0.38511930E-04 
    8    5   -0.88592283E-04  0.54311290E-05 
    9    5   -0.22023277E-03 -0.12524559E-04 
    1    6   -0.10756884E-02  0.17873249E-03 
    2    6    0.17180370E-03  0.29868428E-04 
    3    6    0.91972012E-04  0.65195203E-05 
    4    6   -0.11961411E-03  0.52632321E-04 
    5    6   -0.11695412E-02 -0.83651667E-05 
    6    6    0.16881964E-03 -0.21094674E-04 
    7    6   -0.70446482E-03  0.34434576E-05 
    8    6    0.20460567E-03 -0.61650152E-05 
    9    6   -0.40958031E-04  0.88206781E-05 
    1    7    0.13017625E-02 -0.18896932E-03 
    2    7   -0.89991590E-03 -0.67411294E-05 
    3    7   -0.53663332E-04 -0.29997549E-05 
    4    7   -0.18585350E-02  0.51749677E-03 
    5    7    0.30863340E-03  0.39714014E-04 
    6    7    0.46325790E-03 -0.36457081E-04 
    7    7    0.19663000E-03  0.50124805E-05 
    8    7    0.30799505E-03 -0.82561299E-06 
    9    7    0.30989291E-03 -0.14651058E-04 
    1    8    0.17926395E-02 -0.22396926E-03 
    2    8    0.37938724E-03  0.31716638E-04 
    3    8    0.11626986E-02 -0.26145352E-04 
    4    8   -0.16237605E-02  0.38401188E-03 
    5    8    0.44541786E-03  0.17345055E-04 
    6    8    0.24690154E-03  0.86252172E-05 
    7    8    0.10510258E-03 -0.76781727E-05 
    8    8   -0.32292095E-03  0.80884247E-06 
    9    8   -0.78378621E-03 -0.12481496E-04 
    1    9    0.19974028E-02 -0.36037114E-03 
    2    9    0.35168536E-03  0.60702262E-04 
    3    9   -0.13936805E-02  0.12039682E-03 
    4    9    0.10720514E-02 -0.27231975E-03 
    5    9    0.19048337E-03  0.17146655E-04 
    6    9    0.51116095E-03 -0.27930178E-04 
    7    9    0.61889899E-03 -0.59582969E-05 
    8    9   -0.71755639E-03  0.82665939E-05 
    9    9   -0.94059204E-03 -0.20358146E-04 

   -3    2   -3
    1    1    0.13333402E-02  0.65651597E-04 
    2    1    0.30087441E-03 -0.16025693E-03 
    3    1   -0.23597240E-02 -0.50192039E-03 
    4    1    0.16818902E-02 -0.10753379E-03 
    5    1   -0.32117021E-03 -0.90378159E-04 
    6    1   -0.96948084E-03 -0.17078235E-03 
    7    1   -0.44188946E-03 -0.63240725E-04 
    8    1    0.11187552E-03  0.28747656E-05 
    9    1   -0.63453413E-03 -0.15593239E-03 
    1    2   -0.29265009E-01  0.65945481E-02 
    2    2    0.16042448E-02 -0.83738993E-04 
    3    2    0.11249075E-02 -0.22566366E-03 
    4    2   -0.52836856E-02  0.18699676E-02 
    5    2   -0.95111947E-03  0.16721755E-03 
    6    2    0.41635556E-02 -0.13513133E-03 
    7    2    0.16734686E-02 -0.90546591E-04 
    8    2    0.82392073E-03 -0.14438143E-03 
    9    2   -0.11331099E-02  0.86180459E-04 
    1    3   -0.99620373E-02  0.11122933E-02 
    2    3    0.44888840E-03  0.18600373E-04 
    3    3   -0.55532033E-03  0.34532174E-04 
    4    3   -0.94971160E-03  0.33226658E-03 
    5    3   -0.31552815E-02 -0.26040015E-03 
    6    3    0.12552510E-02  0.14751187E-03 
    7    3    0.34034065E-04  0.20637051E-05 
    8    3   -0.38715169E-03 -0.46352227E-04 
    9    3    0.48723847E-03  0.87970839E-04 
    1    4   -0.15385631E-01 -0.99214053E-03 
    2    4   -0.30367762E-02 -0.11724668E-02 
    3    4   -0.53264538E-03 -0.35066397E-03 
    4    4   -0.45048394E-02 -0.37164105E-05 
    5    4    0.16694722E-02  0.59872157E-03 
    6    4    0.11179987E-02  0.27914242E-03 
    7    4    0.30288349E-02  0.81416325E-03 
    8    4   -0.83448049E-03 -0.22079573E-03 
    9    4   -0.20887026E-02 -0.54942143E-03 
    1    5   -0.46789088E-02  0.96952428E-03 
    2    5   -0.23903697E-02 -0.84729851E-04 
    3    5    0.85713533E-03 -0.11362308E-03 
    4    5   -0.12115769E-02  0.34894714E-03 
    5    5    0.73535272E-03  0.31092799E-04 
    6    5   -0.17950112E-03  0.35084607E-06 
    7    5    0.79396137E-03 -0.23558850E-04 
    8    5    0.13158493E-03 -0.30201175E-06 
    9    5   -0.85310943E-03 -0.19679967E-04 
    1    6   -0.63766845E-02  0.93128808E-03 
    2    6   -0.28705478E-03 -0.84837977E-05 
    3    6    0.75438802E-03 -0.50926731E-04 
    4    6   -0.77435137E-03  0.20555291E-03 
    5    6   -0.29044623E-02 -0.65569835E-04 
    6    6    0.32902924E-03  0.11553644E-04 
    7    6   -0.66459629E-03  0.10425657E-04 
    8    6    0.29365701E-03 -0.98928958E-05 
    9    6   -0.27501787E-03  0.28191221E-04 
    1    7   -0.12724826E-04  0.93852362E-04 
    2    7   -0.70007286E-03 -0.33302609E-05 
    3    7   -0.82159967E-03  0.65501376E-05 
    4    7   -0.13967051E-02  0.41823653E-03 
    5    7   -0.27861973E-03  0.46149358E-04 
    6    7    0.10302758E-03 -0.51131419E-04 
    7    7   -0.69124452E-04  0.11250234E-04 
    8    7    0.11767947E-03 -0.17212676E-05 
    9    7   -0.18567063E-03 -0.94294724E-05 
    1    8    0.59327559E-02 -0.81505108E-03 
    2    8    0.44547851E-04  0.24505288E-04 
    3    8   -0.36616190E-03  0.85460617E-04 
    4    8    0.20915312E-02 -0.49122311E-03 
    5    8    0.13808811E-02  0.42142034E-04 
    6    8   -0.51952320E-03 -0.11082796E-04 
    7    8   -0.29595921E-03 -0.44613420E-05 
    8    8   -0.23182684E-03  0.91561666E-05 
    9    8    0.10640077E-02  0.12012938E-04 
    1    9   -0.32584382E-02  0.52046436E-03 
    2    9    0.19263893E-04  0.46533545E-04 
    3    9    0.89876043E-05  0.36347364E-04 
    4    9    0.56592745E-03 -0.13724407E-03 
[...]
    7    7    0.11629710E-04  0.62861173E-05 -0.24683823E-04  0.73971626E-06  0.10297525E-04 -0.28942812E-05
    8    7    0.57156346E-04 -0.32257418E-06 -0.85273233E-04  0.23648877E-05  0.38026990E-04 -0.21935669E-05
    9    7   -0.31529429E-05  0.19043160E-04 -0.12182100E-03 -0.10248499E-04 -0.98603249E-05 -0.34724040E-05
    1    8    0.11412212E-03  0.12872223E-04  0.74370366E-04  0.44979576E-05  0.35318974E-04 -0.26243943E-04
    2    8    0.17282707E-03  0.29629635E-04 -0.78712332E-04  0.20171011E-04  0.50699999E-04  0.18156470E-04
    3    8   -0.23856434E-03  0.29319028E-04  0.18994041E-03  0.94136470E-05  0.38065847E-04  0.16219021E-04
    4    8   -0.39555830E-03  0.12171489E-03  0.84305395E-04 -0.17734163E-05 -0.35820898E-03  0.66737687E-04
    5    8    0.63437778E-04  0.99795004E-05 -0.13228563E-03 -0.48079218E-06 -0.56113940E-04 -0.85309265E-05
    6    8    0.65831532E-04 -0.65168618E-05  0.44055477E-04 -0.51746785E-05  0.10215684E-03  0.84612071E-05
    7    8    0.32994243E-04 -0.53461908E-05 -0.15705196E-04 -0.87273685E-05  0.12024230E-04 -0.48338364E-05
    8    8   -0.22406116E-05 -0.30023741E-06  0.34245887E-06 -0.33119716E-06  0.38058982E-06  0.91241750E-07
    9    8    0.16004209E-03 -0.48237183E-05 -0.54431636E-04 -0.85142683E-05  0.95451868E-04 -0.45608066E-05
    1    9    0.23864621E-03 -0.49400547E-04 -0.24090272E-03  0.98415892E-04 -0.17690413E-03  0.20745559E-04
    2    9    0.16404850E-03 -0.43334809E-04 -0.56796146E-05  0.30314366E-04  0.13605153E-03 -0.32980885E-04
    3    9    0.18300653E-03 -0.63998694E-04 -0.15207285E-03  0.38628085E-04 -0.52453362E-04  0.85439768E-05
    4    9   -0.17443657E-03  0.42665104E-04 -0.20777268E-04  0.68581307E-04 -0.22551949E-04  0.20055042E-05
    5    9   -0.32600144E-05  0.59107711E-06 -0.25686385E-04  0.12310822E-04 -0.42387892E-04 -0.27044413E-05
    6    9    0.36317647E-04  0.35533471E-05  0.54502469E-04 -0.21553595E-04 -0.81514966E-04  0.49549362E-05
    7    9   -0.64579116E-04  0.16441659E-04  0.85621628E-04 -0.87194578E-05 -0.17605754E-04  0.12183312E-05
    8    9    0.51620159E-04 -0.10514146E-05 -0.17826916E-04  0.19525694E-06  0.87156775E-04 -0.31035836E-05
    9    9   -0.58356907E-04  0.42912962E-05 -0.66301901E-04  0.13389030E-05 -0.69550855E-04  0.34403307E-05

    4   -1    2
    1    1    0.23477320E-03 -0.19701832E-04  0.14361806E-04  0.10192113E-05 -0.90818630E-04 -0.40534895E-05
    2    1   -0.78079660E-03 -0.11606440E-03  0.20722267E-03  0.26489239E-04 -0.12872045E-02 -0.13957086E-03
    3    1   -0.12104884E-03  0.14255748E-04  0.44037542E-03  0.27702101E-04 -0.62862773E-03  0.17135682E-05
    4    1    0.30880525E-03  0.10151782E-03 -0.21508958E-03  0.70234395E-05 -0.30888862E-03  0.18279580E-03
    5    1    0.72129884E-05  0.30357546E-04 -0.32686978E-03 -0.76993392E-04  0.96207861E-05  0.43343703E-04
    6    1   -0.17725245E-04 -0.28474024E-04 -0.17882107E-04  0.12697847E-04  0.50420350E-04 -0.31191724E-04
    7    1    0.71695881E-04  0.12621716E-05 -0.13426639E-03 -0.16985023E-04  0.73116354E-04 -0.16039064E-04
    8    1   -0.12348127E-03 -0.16990646E-04 -0.11472451E-03 -0.11689304E-06  0.19783534E-06 -0.52369288E-05
    9    1    0.25197002E-03  0.43742502E-04  0.11525825E-03  0.23519913E-04  0.14682558E-03 -0.10647087E-04
    1    2    0.70901197E-04 -0.12219162E-04 -0.12277839E-04 -0.69759522E-04 -0.25391997E-03  0.94926626E-04
    2    2   -0.19639468E-04  0.22757758E-04  0.44937562E-03 -0.13821490E-05 -0.45739401E-03 -0.14048918E-05
    3    2    0.33970677E-04  0.11546951E-03  0.44486066E-03 -0.11238779E-05 -0.41368817E-03  0.23668346E-04
    4    2   -0.72410416E-04 -0.35385432E-04 -0.28385520E-03 -0.37314832E-04 -0.77696222E-05  0.26753252E-05
    5    2   -0.43860435E-04  0.48667045E-06 -0.15241245E-03 -0.43226223E-05  0.39482958E-04  0.60396766E-05
    6    2   -0.33332660E-04  0.15238973E-04  0.26592606E-03  0.35297914E-04  0.21261632E-03 -0.12447852E-04
    7    2    0.72709478E-04 -0.45888992E-04  0.76763400E-04 -0.15107906E-04  0.24864724E-03 -0.13859887E-05
    8    2   -0.23602522E-03  0.19697462E-04  0.76223603E-04 -0.56014181E-06  0.33380600E-04  0.68806292E-05
    9    2    0.40654382E-04 -0.62924429E-04 -0.30981706E-04 -0.17478380E-04  0.21395256E-03 -0.34618919E-04
    1    3   -0.34680286E-03  0.37109012E-04 -0.44456872E-04  0.16146905E-04  0.18495276E-04 -0.64417175E-04
    2    3    0.86819168E-03  0.27617717E-03  0.22470074E-03 -0.38583589E-04  0.23861399E-03  0.26010408E-04
    3    3   -0.47509463E-04  0.25729256E-04  0.17569073E-03 -0.48635502E-05 -0.14095575E-03 -0.62036111E-05
    4    3   -0.48685916E-03  0.35076832E-04 -0.36962044E-03  0.36998770E-04  0.13063114E-03 -0.13875814E-03
    5    3   -0.14988614E-03 -0.11262400E-04  0.81819620E-04  0.27199756E-04  0.13021598E-03 -0.10466599E-04
    6    3    0.18277380E-03  0.25000405E-04  0.25264077E-04  0.16343891E-04  0.38804011E-05  0.28073948E-04
    7    3    0.12445605E-03 -0.31872661E-04 -0.77323075E-04  0.14762025E-04 -0.44894719E-04  0.28640884E-04
    8    3    0.27929156E-03  0.21761068E-04  0.18745970E-03  0.15826229E-04  0.21140770E-03  0.20799676E-04
    9    3   -0.17705285E-03 -0.73675520E-04 -0.83491941E-04  0.11656540E-04 -0.19898978E-03 -0.13126560E-04
    1    4   -0.36617087E-04  0.80276388E-04  0.25375096E-03  0.10010862E-04  0.19163135E-03  0.53882048E-04
    2    4   -0.44175124E-03 -0.10398976E-03 -0.53910175E-03 -0.26090518E-03 -0.34491177E-03 -0.12277755E-03
    3    4   -0.27983884E-03 -0.32173122E-04 -0.18616453E-03 -0.12160547E-03  0.26848874E-03 -0.25652946E-04
    4    4   -0.18169751E-03 -0.24573755E-04  0.92643584E-04  0.85586742E-06 -0.48277674E-04  0.60052463E-06
    5    4   -0.57383363E-04  0.98029022E-05  0.12227667E-04  0.15714225E-04  0.85064347E-05  0.20538825E-04
    6    4   -0.49971678E-05 -0.23342997E-04 -0.17587533E-03 -0.62551029E-04 -0.77480742E-04 -0.32743697E-04
    7    4    0.17746103E-03  0.39297726E-04  0.14546086E-03  0.67985619E-04 -0.11615123E-04  0.10101244E-04
    8    4    0.39915616E-03  0.98727932E-04  0.30301301E-05  0.18776980E-04  0.10890192E-03  0.21309783E-04
    9    4    0.30139763E-03  0.87331068E-04  0.25763586E-03  0.10179052E-03  0.12546681E-03  0.44458228E-04
    1    5   -0.27523243E-04  0.35219663E-04 -0.22175096E-03  0.11835941E-04 -0.78286356E-04  0.69376797E-04
    2    5   -0.36515587E-03 -0.76916870E-05  0.70022001E-04  0.11458344E-04 -0.50400779E-03  0.59514862E-05
    3    5   -0.29187597E-03  0.24384713E-04 -0.97855695E-04  0.16864359E-04 -0.11040397E-03  0.12754734E-04
    4    5    0.20218615E-04  0.37366436E-04  0.15985895E-03 -0.38822993E-04  0.71473567E-04  0.48972614E-04
    5    5    0.58464679E-04 -0.50602768E-05 -0.78432642E-04 -0.17822876E-05  0.68548744E-04 -0.14293120E-05
    6    5   -0.66731679E-06 -0.81558139E-05 -0.91718545E-04  0.29582213E-05 -0.28483632E-04 -0.18056496E-04
    7    5    0.31485561E-04 -0.20457699E-07  0.35141344E-04 -0.23950123E-05 -0.51707512E-04 -0.37801814E-05
    8    5    0.54150141E-04 -0.20562622E-05  0.10752394E-03  0.18705817E-05  0.11600011E-03 -0.67458440E-05
    9    5    0.48865915E-04  0.46822776E-05  0.11059614E-03 -0.34555566E-05  0.13290728E-03 -0.66065432E-05
    1    6    0.72253720E-04 -0.36885496E-04  0.42756212E-04  0.62237891E-05  0.10018790E-03 -0.15504422E-04
    2    6    0.22708361E-03  0.13333757E-04  0.95135895E-04  0.48336694E-04  0.72423740E-04 -0.35014546E-05
    3    6    0.61667308E-04 -0.59207318E-05  0.57943880E-04  0.34395957E-04 -0.12314392E-03  0.13752802E-04
    4    6    0.84118588E-04 -0.60644715E-04 -0.11411818E-03  0.10574530E-04 -0.10177192E-03  0.18642797E-04
    5    6    0.38011723E-04 -0.67562208E-05 -0.21056371E-04 -0.64485875E-06  0.74562336E-04  0.20011306E-06
    6    6   -0.35559108E-04 -0.50838682E-05 -0.10217048E-05  0.16256203E-05 -0.99736826E-05  0.20570455E-05
    7    6   -0.46321879E-04 -0.48224897E-08 -0.38049071E-04 -0.12421921E-04 -0.43449755E-04  0.83918627E-07
    8    6   -0.45474712E-04  0.85487441E-06  0.20022338E-05 -0.54255567E-05  0.14117159E-04  0.30865304E-05
    9    6   -0.22394346E-04 -0.53700023E-05 -0.14063579E-04 -0.14640423E-04 -0.71601608E-04 -0.20543992E-06
    1    7    0.27274555E-03 -0.48694641E-04  0.22020752E-03 -0.52148905E-04 -0.32107604E-04  0.10236157E-04
    2    7   -0.33403107E-03 -0.73736608E-04 -0.17149934E-03 -0.38459818E-06  0.28971367E-04  0.11937341E-04
    3    7    0.25973752E-03 -0.54687510E-04  0.67854450E-04  0.47369641E-05 -0.83472018E-04  0.52678687E-04
    4    7    0.10530017E-03 -0.12581851E-04  0.22045339E-03 -0.63780607E-04 -0.12922310E-03  0.52117498E-04
    5    7    0.11002738E-03  0.37434644E-06  0.55179755E-04 -0.90469578E-05 -0.48375763E-05  0.18194978E-05
    6    7   -0.63311836E-04 -0.38954777E-05 -0.10944345E-04  0.16675038E-06  0.48080099E-04 -0.31116125E-05
    7    7   -0.44280702E-04  0.53285539E-05 -0.13630399E-05  0.42302982E-06  0.29654012E-04 -0.25740370E-05
    8    7   -0.15312224E-04 -0.14402610E-05 -0.73639699E-04 -0.20095695E-05 -0.63760425E-04 -0.13201769E-05
    9    7    0.21957872E-04  0.19168543E-04  0.98481838E-05 -0.12782322E-05 -0.92092365E-04 -0.40360546E-05
    1    8    0.24429499E-03 -0.16052775E-04  0.26111380E-03 -0.22912226E-04  0.11486025E-04 -0.18439675E-04
    2    8    0.12318303E-03  0.26188362E-04  0.83521526E-04  0.28038790E-04  0.20423798E-03  0.33205723E-04
    3    8   -0.31403527E-03  0.32590468E-04 -0.12671934E-03  0.27486856E-04 -0.50928449E-04  0.21090233E-04
    4    8   -0.24383580E-04  0.24153178E-04  0.68066988E-04 -0.33876083E-06 -0.13798125E-03  0.10576266E-04
    5    8    0.20320885E-04  0.52899709E-05  0.95364462E-06  0.49849625E-05  0.33810162E-04 -0.49123737E-05
    6    8   -0.12813024E-03 -0.71952025E-05 -0.88382277E-04 -0.55244541E-05 -0.10928250E-04  0.68093621E-05
    7    8    0.42871014E-04 -0.64043965E-05  0.52246777E-04 -0.69187508E-05 -0.20482082E-04 -0.70295688E-05
    8    8    0.33541556E-05  0.44016754E-06  0.10845197E-05 -0.70654745E-07 -0.25237920E-05 -0.12983242E-06
    9    8   -0.57559461E-04 -0.65186278E-05  0.83659087E-04 -0.65120027E-05 -0.11682863E-03 -0.10085783E-04
    1    9    0.21649759E-03 -0.38917107E-04 -0.22672820E-03  0.77089528E-04  0.32003906E-04 -0.10325478E-04
    2    9    0.19426058E-03 -0.43435503E-04 -0.15635669E-03 -0.17847837E-05  0.19662429E-03 -0.30220105E-04
    3    9   -0.11308591E-03 -0.30254430E-04 -0.13956656E-03  0.13151469E-04 -0.14929982E-04  0.20342790E-06
    4    9    0.21232895E-03 -0.42024287E-04 -0.99054990E-04  0.78062402E-04  0.16807454E-03 -0.35611799E-04
    5    9    0.35958840E-04 -0.13396368E-05 -0.10377212E-03  0.60558915E-05 -0.34732584E-05 -0.46664738E-06
    6    9   -0.43300081E-04 -0.34290683E-05 -0.12130934E-04 -0.19056272E-04 -0.39236945E-04 -0.18332173E-05
    7    9    0.16684810E-04  0.13774631E-04  0.21846659E-04 -0.27804144E-05 -0.93392740E-05  0.61887369E-06
    8    9    0.11254082E-05 -0.18860196E-05  0.68512518E-04 -0.36255056E-05  0.34025412E-04 -0.20205957E-05
    9    9    0.16575666E-04  0.44109196E-05  0.57100267E-05 -0.89257801E-06 -0.11337733E-04  0.19146985E-05

    4   -1    3
    1    1   -0.20784714E-03 -0.20296630E-04  0.18383735E-03  0.16471773E-05  0.48128671E-04 -0.21659777E-05
    2    1    0.39025647E-04  0.75248215E-04  0.36165106E-03  0.58355962E-04 -0.95689074E-03 -0.50100045E-04
    3    1   -0.44101514E-03  0.19938908E-04 -0.20623860E-03 -0.30299425E-04 -0.12467428E-03 -0.10007770E-05
    4    1   -0.32266500E-03  0.13590231E-03 -0.18426610E-03 -0.49003607E-04  0.32667165E-03  0.75021658E-04
    5    1   -0.92537875E-04  0.33495477E-05 -0.46653282E-04 -0.36780234E-04 -0.22945256E-03  0.70398967E-05
    6    1    0.12605574E-03 -0.69462638E-05 -0.39818607E-04  0.20755768E-04 -0.19196545E-03 -0.57182662E-04
    7    1    0.17855286E-03  0.88451242E-05 -0.27096656E-05  0.81639622E-05 -0.45000451E-04 -0.27868471E-04
    8    1    0.30777382E-04  0.24046931E-05 -0.12014329E-04  0.11213216E-04 -0.10548418E-03 -0.30364811E-04
    9    1    0.81287794E-04 -0.10228947E-06 -0.18959988E-03 -0.24546023E-04  0.50911846E-04 -0.33179212E-04
    1    2   -0.43426251E-03  0.91230717E-04 -0.17041854E-04 -0.71691580E-04 -0.13692896E-04  0.92352486E-04
    2    2    0.18021211E-03  0.24478535E-04  0.20436096E-03  0.17837855E-05 -0.10889202E-03  0.21292978E-05
    3    2    0.26072303E-03  0.12002852E-03  0.20856712E-03  0.19975459E-05 -0.48220522E-03 -0.35154629E-04
    4    2   -0.16789791E-03  0.57224903E-04 -0.61481658E-03  0.89283288E-04 -0.42680173E-04  0.30414296E-04
    5    2   -0.16361585E-03  0.37069612E-05  0.90961304E-04 -0.16020813E-04 -0.14967222E-04  0.21925054E-04
    6    2    0.77641807E-04 -0.11427712E-04  0.23306383E-03  0.27431171E-04 -0.70577698E-04 -0.12709551E-04
    7    2   -0.96667161E-04 -0.55385359E-04  0.18276749E-04 -0.22672564E-05  0.38289117E-03  0.16103887E-04
    8    2    0.27426536E-03 -0.16213504E-04 -0.12939888E-03  0.73443662E-05 -0.23729047E-03  0.23193176E-04
    9    2   -0.18601297E-03 -0.44535379E-04 -0.14600902E-03  0.75853297E-05 -0.93032712E-05 -0.18561079E-04
    1    3   -0.17100253E-03  0.11541533E-04  0.79049525E-03 -0.81206192E-04  0.22144219E-03 -0.52605242E-04
    2    3    0.24635491E-03  0.16465619E-03 -0.20378433E-03 -0.12744875E-03  0.46213995E-03  0.69204244E-05
    3    3    0.18171852E-03  0.21352957E-04 -0.20198974E-03 -0.19993398E-05  0.10624292E-03 -0.44966646E-05
    4    3   -0.40080851E-03  0.77195501E-04  0.15857147E-03 -0.59382838E-04  0.16531256E-03 -0.13791748E-03
    5    3   -0.66268748E-04 -0.67390695E-05  0.28624717E-03  0.33922255E-04 -0.13536818E-04 -0.14984238E-04
    6    3    0.15167965E-03  0.70672262E-05  0.31962573E-04  0.18371275E-04 -0.77914278E-04  0.14781886E-04
    7    3   -0.17124297E-03 -0.68171355E-04  0.13291824E-03  0.38973683E-04  0.60670360E-05  0.61098684E-04
    8    3   -0.27853891E-03 -0.16113356E-04 -0.12920950E-03 -0.64011970E-05 -0.24462969E-03 -0.63421699E-05
    9    3   -0.10028747E-03 -0.58757745E-04 -0.24576658E-04  0.31458522E-04 -0.38808665E-03 -0.18775073E-04
    1    4   -0.32186873E-03  0.54465191E-04  0.30202535E-03  0.41876935E-05 -0.37803226E-03 -0.19935075E-04
    2    4   -0.44648567E-03 -0.81816677E-04  0.18754571E-03 -0.10782260E-04 -0.33272817E-04 -0.11252356E-04
    3    4    0.41227591E-04  0.64555147E-04 -0.38129906E-03 -0.14314098E-03  0.79344432E-03  0.10911194E-04
    4    4   -0.18868932E-03 -0.24481743E-04 -0.60902428E-04  0.68853910E-06 -0.85687558E-04  0.10802705E-05
    5    4   -0.12356472E-03 -0.14504689E-04  0.49937857E-05  0.31919069E-05 -0.20446092E-03 -0.38591256E-04
    6    4    0.82743000E-04 -0.28437609E-05 -0.83618709E-04 -0.22989737E-04 -0.19865951E-03 -0.45832153E-04
    7    4    0.73273010E-04  0.25725199E-05  0.19004458E-03  0.78113929E-04 -0.85677344E-06  0.29511551E-04
    8    4   -0.30587928E-04 -0.79336352E-05 -0.10649691E-04  0.10787057E-04 -0.10069016E-03 -0.40236906E-04
    9    4    0.18890224E-03  0.38014406E-04  0.93526252E-05  0.27012295E-04  0.86253252E-04  0.31086248E-04
    1    5    0.80405325E-04  0.14019934E-04 -0.94728735E-04 -0.89143566E-05  0.10935154E-03  0.29344546E-04
    2    5    0.17082121E-04  0.13887292E-04  0.12733865E-03  0.14252977E-04 -0.55169727E-04  0.28423120E-04
    3    5   -0.15163721E-03  0.23815557E-04  0.14445562E-04  0.86706451E-05 -0.21400547E-03  0.12183249E-04
    4    5    0.16187001E-03 -0.12581314E-04  0.52551928E-04 -0.24488294E-04  0.37209617E-03 -0.53973268E-04
    5    5   -0.17695509E-04 -0.53626078E-05 -0.26082760E-05 -0.15907715E-05  0.29310840E-05 -0.20093835E-05
    6    5   -0.59333467E-04 -0.69423400E-05 -0.22751032E-04  0.49783608E-05 -0.12676643E-03 -0.93042655E-05
    7    5    0.54224360E-04 -0.44546878E-05 -0.12869820E-03  0.10204572E-05  0.23471023E-04 -0.43307538E-05
    8    5    0.10665541E-04 -0.13899167E-05  0.49111038E-04  0.25401017E-05 -0.14097500E-03 -0.12661319E-05
    9    5    0.26943333E-04 -0.20817239E-05  0.88749595E-06 -0.33154610E-05 -0.65202768E-04 -0.62117678E-05
    1    6   -0.17035606E-03 -0.41323230E-07  0.26579888E-04  0.15391966E-04  0.39940023E-03 -0.58133122E-04
    2    6    0.16317209E-03 -0.21457665E-05  0.27028659E-04  0.36258359E-04 -0.15795360E-03 -0.20637962E-04
    3    6   -0.20959092E-04 -0.99122198E-05  0.13427485E-03  0.28919951E-04  0.15733469E-04  0.21980119E-04
    4    6   -0.85229031E-04 -0.67819736E-05 -0.11430694E-03  0.30973470E-04  0.11957538E-03 -0.24362055E-04
    5    6   -0.57833287E-04 -0.74349949E-05  0.10838369E-04  0.31771902E-05  0.12345739E-03  0.29083641E-06
    6    6   -0.20811330E-04 -0.45897261E-05  0.12877653E-04  0.82717156E-06 -0.58305591E-05  0.21571726E-05
    7    6   -0.24419763E-04  0.17526341E-05  0.29312417E-05 -0.13599864E-04 -0.89819637E-04 -0.29745875E-05
    8    6    0.18905096E-04  0.10206909E-05 -0.49965748E-04 -0.33949456E-05  0.14760817E-03  0.49551099E-05
    9    6   -0.59828593E-04  0.17861330E-05 -0.13280426E-03 -0.12697431E-04  0.38652233E-05  0.85531084E-06
    1    7    0.20787907E-03 -0.35718774E-04 -0.45575117E-04 -0.35077575E-05 -0.10217332E-03  0.13075773E-04
    2    7   -0.83537476E-04 -0.48286666E-04 -0.60383945E-04  0.15116526E-04 -0.23208157E-03  0.10935158E-04
    3    7    0.22722453E-04 -0.45292770E-04  0.89066917E-04  0.17125601E-05 -0.20641144E-03  0.83711005E-04
    4    7    0.23016376E-03 -0.64560563E-04 -0.35444179E-04  0.11718643E-05 -0.11063691E-03  0.49136173E-04
    5    7    0.36033329E-04  0.84435076E-07  0.47163027E-04 -0.57368733E-05  0.19216854E-05 -0.74433896E-06
    6    7   -0.69414026E-04  0.24117947E-05  0.15956478E-04  0.13934208E-06 -0.11831391E-04 -0.23567977E-05
    7    7    0.20242248E-04  0.53357360E-05 -0.81905053E-05  0.12294570E-05  0.40173974E-05 -0.23023540E-05
    8    7   -0.38950326E-04  0.77464341E-06  0.12212095E-04 -0.13344405E-05  0.66803903E-04 -0.28670320E-05
    9    7   -0.95672563E-04  0.15767866E-04  0.35244170E-05 -0.52370256E-05  0.11207460E-03 -0.54845832E-05
    1    8   -0.32160894E-03  0.65609272E-04  0.26274092E-04  0.12573274E-04  0.22847553E-03 -0.47797369E-04
    2    8   -0.34107804E-03 -0.17610465E-06  0.12677581E-03  0.27866153E-04  0.17915948E-03  0.25298939E-04
    3    8    0.34296357E-03 -0.51352831E-05  0.12598563E-03  0.12551831E-04  0.17889405E-03  0.57585547E-05
    4    8    0.24450096E-03 -0.43882395E-04  0.29249653E-04  0.10609026E-04  0.22471344E-03 -0.72493019E-04
    5    8   -0.98391809E-04  0.26217857E-05 -0.52637906E-05  0.41905208E-05  0.31884910E-04 -0.36655171E-05
    6    8   -0.59122352E-04 -0.69404484E-05  0.49349822E-06 -0.49731372E-05 -0.35129808E-04  0.48124607E-05
    7    8   -0.19294984E-03 -0.83417019E-05 -0.80916746E-04 -0.90669323E-05 -0.17378670E-03 -0.93655347E-05
    8    8   -0.29686270E-05 -0.18580694E-07 -0.52426931E-06  0.16292667E-06 -0.12222520E-06  0.10081833E-06
    9    8    0.19327264E-03 -0.31990121E-05 -0.82295871E-04 -0.94136300E-05 -0.17782655E-03 -0.93333418E-05
    1    9    0.25550812E-03 -0.46102718E-04 -0.16893434E-04  0.48457712E-04  0.64280317E-04 -0.30744957E-04
    2    9    0.17869830E-04 -0.44923522E-04 -0.10041529E-03  0.17287785E-04  0.20946056E-03 -0.17136302E-04
    3    9   -0.81221951E-04 -0.45674078E-04  0.63314141E-04  0.64648200E-05  0.24152615E-03  0.73486669E-05
    4    9    0.20898267E-03 -0.60480512E-04  0.61302368E-06  0.50697357E-04  0.46663954E-04 -0.87525162E-05
    5    9    0.71636865E-04  0.60477582E-06 -0.53073391E-05  0.10129598E-04 -0.32185448E-04 -0.53643979E-05
    6    9   -0.44901818E-04  0.31665840E-05  0.64487314E-04 -0.18241087E-04  0.18725057E-04  0.18891149E-05
    7    9   -0.97787079E-04  0.19685284E-04 -0.21105734E-05 -0.65727202E-05 -0.11616958E-03 -0.70180649E-05
    8    9    0.38990918E-04 -0.90371373E-06  0.11012717E-04 -0.14001562E-05  0.66180596E-04 -0.32457568E-05
    9    9    0.15864530E-04  0.42851322E-05  0.11350307E-04 -0.47669929E-06 -0.36725126E-05  0.25400082E-05
