 written on 15Jun2023 at 18:06:43 
   0.0000000000000000        2.7152650000000000        2.7152650000000000     
   2.7152650000000000        0.0000000000000000        2.7152650000000000     
   2.7152650000000000        2.7152650000000000        0.0000000000000000     
           4
         279
    3    2    2    3    2    3    6    2    2    2    1    2    2    1    1
    2    2    1    1    1    2    2    1    1    1    1    2    6    2    2
    2    2    2    6    2    2    3    1    1    1    3    2    1    1    1
    1    2    3    1    1    1    1    1    3    1    1    1    1    1    1
    2    1    1    1    1    1    2    2    1    1    1    1    2    3    2
    3    2    1    2    2    1    1    1    1    2    2    1    1    1    1
    1    2    1    1    1    1    1    1    2    1    1    1    1    1    2
    1    1    1    1    1    1    2    1    1    1    2    2    2    3    2
    1    1    2    3    1    1    1    1    1    3    1    1    1    1    1
    1    2    1    1    1    1    1    2    1    1    1    1    1    1    3
    1    1    1    1    1    3    2    1    1    2    3    2    2    2    1
    1    1    2    1    1    1    1    1    1    2    1    1    1    1    1
    2    1    1    1    1    1    1    2    1    1    1    1    1    2    2
    1    1    1    1    2    2    1    2    3    2    3    2    1    1    1
    1    2    2    1    1    1    1    1    2    1    1    1    1    1    1
    3    1    1    1    1    1    3    2    1    1    1    1    2    3    1
    1    1    3    2    2    6    2    2    2    2    2    6    2    1    1
    1    1    2    2    1    1    1    2    2    1    1    2    2    1    2
    2    2    6    3    2    3    2    2    3

   -4    0    2
    1    1    0.80451304E-03  0.16092791E-08 
    2    1   -0.43090270E-03 -0.22505901E-08 
    3    1   -0.29850062E-03  0.33998938E-08 
    4    1   -0.43089878E-03  0.67332791E-08 
    1    2   -0.43090632E-03 -0.89535509E-08 
    2    2    0.80451732E-03  0.39687640E-08 
    3    2   -0.29849652E-03  0.12885406E-08 
    4    2   -0.43091377E-03  0.56168704E-08 
    1    3   -0.13727432E-03  0.17830477E-09 
    2    3   -0.13726424E-03  0.56728313E-08 
    3    3    0.53380915E-03  0.65106419E-09 
    4    3   -0.13726180E-03 -0.41114441E-08 
    1    4   -0.43090075E-03  0.27695627E-08 
    2    4   -0.43091084E-03 -0.24100158E-08 
    3    4   -0.29849523E-03 -0.41141943E-08 
    4    4    0.80451507E-03 -0.62301744E-08 

   -4    1    1
    1    1    0.11770379E-02 -0.23882272E-08 
    2    1   -0.25802932E-03 -0.48159134E-08 
    3    1   -0.25801949E-03  0.91392923E-09 
    4    1   -0.53218620E-03  0.62589161E-09 
    1    2   -0.14339494E-03 -0.84471425E-10 
    2    2    0.63351482E-03  0.19209754E-08 
    3    2   -0.29850315E-03 -0.35984167E-08 
    4    2   -0.14339051E-03  0.45535346E-08 
    1    3   -0.14340282E-03  0.45150702E-08 
    2    3   -0.29849484E-03 -0.54568273E-08 
    3    3    0.63351749E-03  0.22602330E-08 
    4    3   -0.14339654E-03 -0.34747569E-08 
    1    4   -0.53218479E-03  0.80872732E-10 
    2    4   -0.25802710E-03  0.45766470E-08 
    3    4   -0.25802794E-03  0.53316186E-08 
    4    4    0.11770447E-02 -0.17939913E-08 

   -4    1    2
    1    1    0.11770431E-02  0.64803899E-09 
    2    1   -0.53218335E-03 -0.20202826E-08 
    3    1   -0.25802018E-03  0.19876038E-08 
    4    1   -0.25802685E-03 -0.53046223E-08 
    1    2   -0.53218613E-03 -0.30580394E-08 
    2    2    0.11770376E-02  0.10374957E-09 
    3    2   -0.25802244E-03 -0.29418301E-08 
    4    2   -0.25802773E-03  0.19577470E-08 
    1    3   -0.14339648E-03 -0.56866223E-08 
    2    3   -0.14339615E-03  0.59362873E-08 
    3    3    0.63351614E-03  0.12893099E-08 
    4    3   -0.29850001E-03  0.37497276E-08 
    1    4   -0.14340115E-03 -0.71014760E-09 
    2    4   -0.14340145E-03  0.22191728E-08 
    3    4   -0.29849660E-03  0.44909868E-08 
    4    4    0.63351845E-03 -0.20441050E-08 

   -4    2    0
    1    1    0.80451213E-03 -0.20405763E-08 
    2    1   -0.29850019E-03  0.71766852E-08 
    3    1   -0.43090771E-03 -0.13598282E-09 
    4    1   -0.43091095E-03  0.17351680E-08 
    1    2   -0.13726871E-03 -0.40068074E-10 
    2    2    0.53380744E-03  0.47969760E-09 
    3    2   -0.13726700E-03  0.11295981E-08 
    4    2   -0.13726297E-03 -0.83953618E-09 
    1    3   -0.43089900E-03 -0.35557539E-08 
    2    3   -0.29849853E-03 -0.53226368E-08 
    3    3    0.80451879E-03 -0.96685854E-09 
    4    3   -0.43090910E-03  0.38844133E-08 
    1    4   -0.43090493E-03 -0.39612717E-08 
    2    4   -0.29849895E-03 -0.12299707E-08 
    3    4   -0.43090027E-03 -0.45243452E-09 
    4    4    0.80451621E-03  0.25306598E-08 

   -4    2    1
    1    1    0.11770341E-02  0.23378804E-08 
    2    1   -0.25802803E-03  0.36414759E-08 
    3    1   -0.53219081E-03  0.27382869E-08 
    4    1   -0.25802880E-03 -0.14602555E-09 
    1    2   -0.14340236E-03 -0.11748676E-09 
    2    2    0.63351562E-03 -0.21266758E-08 
    3    2   -0.14338226E-03  0.21822143E-09 
    4    2   -0.29850227E-03  0.41173563E-08 
    1    3   -0.53218333E-03 -0.14058575E-08 
    2    3   -0.25802562E-03 -0.31860741E-09 
    3    3    0.11770452E-02  0.40299114E-09 
    4    3   -0.25802261E-03 -0.56542430E-08 
    1    4   -0.14340007E-03  0.27661951E-08 
    2    4   -0.29849786E-03 -0.70604064E-08 
    3    4   -0.14339542E-03  0.13566031E-08 
    4    4    0.63352035E-03 -0.61176642E-09 

   -4    2    2
    1    1    0.80451474E-03  0.24772608E-08 
    2    1   -0.43090262E-03 -0.15372556E-08 
    3    1   -0.43090652E-03 -0.78360009E-08 
    4    1   -0.29850120E-03  0.58516381E-08 
    1    2   -0.43090306E-03  0.35194214E-08 
    2    2    0.80451306E-03 -0.74274177E-08 
    3    2   -0.43089366E-03 -0.29778791E-08 
    4    2   -0.29850174E-03  0.17670223E-08 
    1    3   -0.43090016E-03 -0.36020249E-08 
    2    3   -0.43091485E-03 -0.12889193E-08 
    3    3    0.80451268E-03  0.45564090E-08 
    4    3   -0.29849787E-03  0.74617983E-09 
    1    4   -0.13727166E-03  0.21284207E-08 
    2    4   -0.13727303E-03  0.57741917E-08 
    3    4   -0.13725985E-03 -0.26470852E-08 
    4    4    0.53381045E-03  0.39350660E-09 

   -3   -3    3
    1    1    0.78243172E-03  0.10048241E-15 
    2    1   -0.26010161E-03 -0.32972626E-07 
    3    1   -0.26011023E-03  0.16894404E-07 
    4    1   -0.26010949E-03 -0.93977632E-08 
    1    2   -0.26010164E-03  0.32972625E-07 
    2    2    0.78243912E-03  0.30417571E-15 
    3    2   -0.26010148E-03  0.42455220E-07 
    4    2   -0.26010526E-03  0.15918979E-07 
    1    3   -0.26011023E-03 -0.16894405E-07 
    2    3   -0.26010146E-03 -0.42455219E-07 
    3    3    0.78244023E-03  0.66468077E-15 
    4    3   -0.26010758E-03 -0.29503795E-07 
    1    4   -0.26010954E-03  0.93977624E-08 
    2    4   -0.26010523E-03 -0.15918979E-07 
    3    4   -0.26010763E-03  0.29503794E-07 
    4    4    0.78243723E-03 -0.38247414E-15 

   -3   -2    2
    1    1    0.33072351E-03 -0.81808580E-08 
    2    1   -0.18866961E-03 -0.53959454E-08 
    3    1   -0.69377831E-04 -0.91316179E-09 
    4    1    0.58220436E-04  0.86477827E-08 
    1    2   -0.69383569E-04 -0.54945369E-08 
    2    2    0.57169319E-03  0.27865494E-08 
    3    2   -0.50237032E-03  0.23081511E-08 
    4    2   -0.69387037E-04  0.39657060E-08 
    1    3   -0.18868369E-03 -0.56714811E-08 
    2    3   -0.26010109E-03 -0.34922903E-07 
    3    3    0.57169329E-03  0.33925399E-08 
    4    3   -0.18867026E-03  0.41906913E-09 
    1    4    0.58218815E-04 -0.28179795E-08 
    2    4   -0.18868967E-03 -0.11342575E-08 
    3    4   -0.69379585E-04  0.51147311E-09 
    4    4    0.33072455E-03  0.20003141E-08 

   -3   -2    3
    1    1    0.33073017E-03 -0.16973311E-08 
    2    1    0.58225901E-04  0.36730748E-08 
    3    1   -0.69387404E-04  0.80711899E-08 
    4    1   -0.18867984E-03  0.31458666E-08 
    1    2    0.58225043E-04 -0.56096024E-08 
    2    2    0.33072196E-03  0.22675967E-08 
    3    2   -0.69383826E-04 -0.90417581E-08 
    4    2   -0.18866494E-03 -0.13124061E-08 
    1    3   -0.18868469E-03  0.29580052E-08 
    2    3   -0.18867178E-03 -0.20803341E-08 
    3    3    0.57169226E-03 -0.83649105E-09 
    4    3   -0.26010661E-03 -0.22344682E-07 
    1    4   -0.69379046E-04  0.13039306E-08 
    2    4   -0.69386638E-04 -0.93491680E-08 
    3    4   -0.50237182E-03  0.17980972E-08 
    4    4    0.57168897E-03  0.26495902E-09 

   -3   -1    1
    1    1   -0.12594584E-02  0.51011059E-08 
    2    1    0.27674701E-03 -0.39039049E-09 
    3    1    0.42918599E-03  0.17310522E-08 
    4    1    0.58081424E-03  0.17222738E-08 
    1    2    0.42918004E-03  0.62027991E-08 
    2    2   -0.21421721E-03 -0.47561832E-09 
    3    2    0.17141201E-03  0.11351079E-08 
    4    2    0.42919285E-03  0.29684560E-08 
    1    3    0.27674305E-03 -0.44769938E-08 
    2    3   -0.50237300E-03 -0.38922053E-08 
    3    3   -0.21421708E-03 -0.28359832E-08 
    4    3    0.27675043E-03 -0.34929667E-08 
    1    4    0.58080206E-03  0.15648661E-08 
    2    4    0.27674896E-03  0.40547970E-08 
    3    4    0.42918334E-03 -0.28504934E-08 
    4    4   -0.12594550E-02 -0.17902453E-08 

   -3   -1    2
    1    1   -0.97200240E-03 -0.40058643E-08 
    2    1    0.46710716E-03 -0.57380281E-08 
    3    1   -0.13726400E-03  0.17536007E-08 
    4    1    0.46711753E-03  0.77169958E-08 
    1    2    0.12706095E-02 -0.27384581E-08 
    2    2   -0.61860607E-03  0.40436328E-08 
    3    2   -0.49358038E-03  0.71224239E-08 
    4    2    0.27674254E-03  0.47431786E-08 
    1    3   -0.95165130E-03 -0.45045110E-08 
    2    3   -0.69379292E-04  0.54718954E-08 
    3    3    0.78961884E-03 -0.74833938E-09 
    4    3   -0.69387081E-04 -0.30306410E-09 
    1    4    0.12706061E-02 -0.81081543E-08 
    2    4    0.27675119E-03 -0.30437883E-08 
    3    4   -0.49357997E-03  0.14584902E-08 
    4    4   -0.61860767E-03  0.71011428E-09 

   -3   -1    3
    1    1   -0.12594581E-02 -0.38908487E-08 
    2    1    0.58080254E-03  0.55156612E-08 
    3    1    0.42918544E-03 -0.60279446E-10 
    4    1    0.27674895E-03 -0.55012775E-08 
    1    2    0.58080698E-03  0.60336328E-08 
    2    2   -0.12594550E-02  0.18213334E-08 
    3    2    0.42918582E-03 -0.25238676E-08 
    4    2    0.27674400E-03 -0.87889935E-09 
    1    3    0.27674573E-03 -0.25842051E-08 
    2    3    0.27675504E-03 -0.19177840E-08 
    3    3   -0.21421378E-03 -0.48972673E-08 
    4    3   -0.50237241E-03  0.51877852E-08 
    1    4    0.42918504E-03  0.38927073E-08 
    2    4    0.42918872E-03 -0.27985489E-08 
    3    4    0.17141098E-03 -0.50872621E-08 
    4    4   -0.21422015E-03  0.69677540E-08 

   -3    0    0
    1    1    0.26292687E-01 -0.14950000E-15 
    2    1    0.72612127E-03  0.13995883E-08 
    3    1    0.72611651E-03  0.87116806E-09 
    4    1   -0.33624191E-01  0.61082404E-08 
    1    2    0.72612887E-03 -0.13995866E-08 
    2    2   -0.10707479E-02  0.19250771E-14 
    3    2    0.17141289E-03  0.91122209E-08 
    4    2    0.72612161E-03 -0.42763975E-09 
    1    3    0.72612410E-03 -0.87116936E-09 
    2    3    0.17141289E-03 -0.91122230E-08 
    3    3   -0.10707561E-02 -0.25625416E-16 
    4    3    0.72613154E-03 -0.44542723E-08 
    1    4   -0.33624110E-01 -0.61082406E-08 
    2    4    0.72612920E-03  0.42763990E-09 
    3    4    0.72613913E-03  0.44542703E-08 
    4    4    0.26292684E-01 -0.73456717E-15 

   -3    0    1
    1    1    0.24899713E-02  0.55609548E-08 
    2    1   -0.43089944E-03 -0.78854625E-08 
    3    1   -0.14339130E-03 -0.37605018E-08 
    4    1   -0.62539169E-03  0.35188362E-08 
    1    2    0.52758162E-03 -0.17676245E-08 
    2    2   -0.97632192E-03 -0.90823270E-09 
    3    2   -0.38737735E-03  0.23640534E-08 
    4    2    0.72613246E-03  0.24029563E-09 
    1    3   -0.14219323E-02  0.17321161E-08 
    2    3   -0.49358379E-03  0.95471137E-09 
    3    3    0.78162539E-03 -0.33716392E-08 
    4    3    0.42918672E-03  0.64698625E-10 
    1    4   -0.12177674E-02  0.49516015E-08 
    2    4    0.26461113E-02 -0.31163906E-08 
    3    4   -0.72419623E-03  0.64161281E-08 
    4    4   -0.16459966E-02 -0.12798158E-08 

   -3    0    2
    1    1    0.24899922E-02 -0.22036596E-08 
    2    1   -0.62539266E-03 -0.48349429E-09 
    3    1   -0.14339989E-03  0.29628644E-08 
    4    1   -0.43090624E-03  0.36014867E-08 
    1    2   -0.12177801E-02 -0.11864200E-07 
    2    2   -0.16459985E-02  0.19740051E-09 
    3    2   -0.72420072E-03 -0.22927901E-08 
    4    2    0.26461254E-02  0.28709773E-08 
    1    3   -0.14219330E-02 -0.85265602E-08 
    2    3    0.42918285E-03 -0.15845757E-09 
    3    3    0.78161586E-03  0.17271873E-08 
    4    3   -0.49358413E-03  0.11808748E-08 
    1    4    0.52755232E-03  0.38878026E-08 
    2    4    0.72613027E-03  0.30071752E-08 
    3    4   -0.38736541E-03  0.50158887E-08 
    4    4   -0.97631868E-03  0.28033114E-09 

   -3    0    3
    1    1    0.26292677E-01 -0.42965825E-16 
    2    1   -0.33624138E-01  0.35931563E-08 
    3    1    0.72612841E-03 -0.34798808E-09 
    4    1    0.72613519E-03 -0.28385463E-08 
    1    2   -0.33624138E-01 -0.35931567E-08 
    2    2    0.26292677E-01  0.69397981E-15 
    3    2    0.72612413E-03  0.53732574E-10 
    4    2    0.72612297E-03  0.98211191E-09 
    1    3    0.72612850E-03  0.34798847E-09 
    2    3    0.72612404E-03 -0.53733270E-10 
    3    3   -0.10707506E-02 -0.50781449E-15 
    4    3    0.17141941E-03  0.17137108E-08 
    1    4    0.72613537E-03  0.28385460E-08 
    2    4    0.72612278E-03 -0.98211194E-09 
    3    4    0.17141941E-03 -0.17137103E-08 
    4    4   -0.10707511E-02 -0.15695907E-15 

   -3    1   -1
    1    1   -0.12594584E-02 -0.51011056E-08 
    2    1    0.42918269E-03 -0.62028003E-08 
    3    1    0.27674161E-03  0.44769928E-08 
    4    1    0.58080327E-03 -0.15648668E-08 
    1    2    0.27674846E-03  0.39039107E-09 
    2    2   -0.21421721E-03  0.47562031E-09 
    3    2   -0.50237300E-03  0.38922056E-08 
    4    2    0.27674751E-03 -0.40547976E-08 
    1    3    0.42918333E-03 -0.17310533E-08 
    2    3    0.17141201E-03 -0.11351060E-08 
    3    3   -0.21421708E-03  0.28359825E-08 
    4    3    0.42918599E-03  0.28504903E-08 
    1    4    0.58081303E-03 -0.17222729E-08 
    2    4    0.42919019E-03 -0.29684537E-08 
    3    4    0.27675188E-03  0.34929661E-08 
    4    4   -0.12594550E-02  0.17902443E-08 

   -3    1    0
    1    1    0.24899725E-02 -0.43681554E-08 
    2    1   -0.14339688E-03  0.66331983E-09 
    3    1   -0.43090126E-03 -0.13551561E-08 
    4    1   -0.62539295E-03  0.43708555E-08 
    1    2   -0.14219251E-02  0.21316825E-08 
    2    2    0.78162129E-03  0.83550926E-09 
    3    2   -0.49358123E-03  0.94098756E-09 
    4    2    0.42918359E-03 -0.94472558E-08 
    1    3    0.52758881E-03  0.70777380E-08 
    2    3   -0.38736825E-03 -0.14795492E-09 
    3    3   -0.97632311E-03  0.15669370E-08 
    4    3    0.72612567E-03 -0.25611951E-08 
    1    4   -0.12177817E-02  0.50975165E-08 
    2    4   -0.72421259E-03  0.25924297E-11 
    3    4    0.26461270E-02  0.10895261E-08 
    4    4   -0.16459925E-02  0.19649077E-08 

   -3    1    1
    1    1    0.17592600E-02 -0.21934082E-08 
    2    1   -0.53218622E-03 -0.25235786E-08 
    3    1   -0.53218992E-03  0.19637861E-08 
    4    1   -0.53219182E-03  0.50265151E-08 
    1    2   -0.46120901E-03 -0.57636489E-08 
    2    2    0.21207510E-02  0.14204256E-08 
    3    2   -0.72419795E-03  0.29662844E-08 
    4    2   -0.72419791E-03 -0.39251533E-08 
    1    3   -0.46120926E-03  0.62398912E-08 
    2    3   -0.72420240E-03  0.63484847E-09 
    3    3    0.21207608E-02  0.14329446E-08 
    4    3   -0.72419445E-03 -0.67684414E-08 
    1    4   -0.46119725E-03  0.41940775E-08 
    2    4   -0.72420787E-03  0.82887350E-08 
    3    4   -0.72419768E-03 -0.70146570E-08 
    4    4    0.21207586E-02 -0.66034674E-09 

   -3    1    2
    1    1    0.24899878E-02  0.54117571E-08 
    2    1   -0.62539409E-03  0.43014965E-09 
    3    1   -0.43090842E-03 -0.62664931E-09 
    4    1   -0.14339915E-03 -0.41851672E-09 
    1    2   -0.12177770E-02 -0.11853144E-08 
    2    2   -0.16459994E-02  0.28505090E-08 
    3    2    0.26461273E-02 -0.48793845E-08 
    4    2   -0.72419636E-03 -0.76434810E-09 
    1    3    0.52754586E-03  0.21892949E-08 
    2    3    0.72612935E-03 -0.19703632E-10 
    3    3   -0.97631780E-03 -0.44417646E-08 
    4    3   -0.38736865E-03 -0.85685366E-09 
    1    4   -0.14219406E-02  0.14282950E-09 
    2    4    0.42917792E-03  0.22083010E-08 
    3    4   -0.49357446E-03 -0.21282418E-08 
    4    4    0.78162154E-03 -0.38201696E-08 

   -3    1    3
    1    1   -0.12594581E-02  0.38908486E-08 
    2    1    0.58080699E-03 -0.60336337E-08 
    3    1    0.27674578E-03  0.25842050E-08 
    4    1    0.42918504E-03 -0.38927072E-08 
    1    2    0.58080253E-03 -0.55156605E-08 
    2    2   -0.12594549E-02 -0.18213332E-08 
    3    2    0.27675500E-03  0.19177845E-08 
    4    2    0.42918871E-03  0.27985487E-08 
    1    3    0.42918544E-03  0.60278258E-10 
    2    3    0.42918582E-03  0.25238689E-08 
    3    3   -0.21421378E-03  0.48972672E-08 
    4    3    0.17141098E-03  0.50872622E-08 
    1    4    0.27674894E-03  0.55012765E-08 
    2    4    0.27674401E-03  0.87889942E-09 
    3    4   -0.50237241E-03 -0.51877845E-08 
    4    4   -0.21422015E-03 -0.69677540E-08 

   -3    2   -2
    1    1    0.33072351E-03  0.81808582E-08 
    2    1   -0.69383116E-04  0.54945360E-08 
    3    1   -0.18868388E-03  0.56714814E-08 
    4    1    0.58218712E-04  0.28179799E-08 
    1    2   -0.18866941E-03  0.53959459E-08 
    2    2    0.57169319E-03 -0.27865486E-08 
    3    2   -0.26010109E-03  0.34922902E-07 
    4    2   -0.18868986E-03  0.11342573E-08 
    1    3   -0.69378284E-04  0.91316208E-09 
    2    3   -0.50237032E-03 -0.23081503E-08 
    3    3    0.57169329E-03 -0.33925402E-08 
    4    3   -0.69379132E-04 -0.51147353E-09 
    1    4    0.58220538E-04 -0.86477836E-08 
    2    4   -0.69387491E-04 -0.39657060E-08 
    3    4   -0.18867007E-03 -0.41906904E-09 
    4    4    0.33072455E-03 -0.20003147E-08 

   -3    2   -1
    1    1   -0.97199816E-03 -0.70525126E-08 
    2    1   -0.13727156E-03 -0.27829933E-09 
    3    1    0.46710749E-03  0.34470627E-08 
    4    1    0.46710451E-03  0.75893830E-08 
    1    2   -0.95164826E-03 -0.61993488E-08 
    2    2    0.78961155E-03 -0.16969343E-08 
    3    2   -0.69384094E-04  0.70166240E-09 
    4    2   -0.69377863E-04  0.14497772E-08 
    1    3    0.12706109E-02 -0.39534429E-08 
    2    3   -0.49358586E-03  0.37695472E-08 
    3    3   -0.61860443E-03  0.12298718E-07 
    4    3    0.27673986E-03  0.27013622E-09 
    1    4    0.12706169E-02 -0.34809456E-08 
    2    4   -0.49357834E-03 -0.40292962E-08 
    3    4    0.27674910E-03  0.23245332E-08 
    4    4   -0.61860625E-03 -0.35492224E-08 

   -3    2    0
    1    1    0.24899846E-02  0.34489125E-08 
    2    1   -0.14339486E-03  0.85106365E-09 
    3    1   -0.62540073E-03 -0.46062559E-08 
    4    1   -0.43090490E-03  0.24901994E-08 
    1    2   -0.14219319E-02  0.57893463E-08 
    2    2    0.78161578E-03 -0.27461821E-08 
    3    2    0.42917983E-03  0.40036169E-08 
    4    2   -0.49358261E-03 -0.52181024E-08 
    1    3   -0.12177650E-02 -0.10238088E-07 
    2    3   -0.72420270E-03  0.89146487E-09 
    3    3   -0.16459912E-02 -0.26194723E-08 
    4    3    0.26461156E-02  0.87476322E-08 
    1    4    0.52755359E-03  0.69393124E-08 
    2    4   -0.38737274E-03 -0.60933763E-08 
    3    4    0.72612949E-03 -0.76696908E-09 
    4    4   -0.97631820E-03  0.19168459E-08 

   -3    2    1
    1    1    0.24899813E-02 -0.98199812E-09 
    2    1   -0.43090122E-03  0.21670375E-08 
    3    1   -0.62539606E-03 -0.16141850E-08 
    4    1   -0.14339384E-03  0.43269425E-08 
    1    2    0.52754148E-03  0.15139602E-08 
    2    2   -0.97631460E-03 -0.33044814E-09 
    3    2    0.72613179E-03 -0.11447589E-08 
    4    2   -0.38736519E-03 -0.63636795E-08 
    1    3   -0.12177594E-02 -0.41424037E-08 
    2    3    0.26461051E-02  0.56155198E-09 
    3    3   -0.16459980E-02 -0.43863885E-08 
    4    3   -0.72420692E-03  0.10399151E-08 
    1    4   -0.14219314E-02 -0.67608275E-08 
    2    4   -0.49358659E-03  0.41404477E-08 
    3    4    0.42918762E-03  0.61297059E-09 
    4    4    0.78162344E-03  0.56995286E-08 

   -3    2    2
    1    1   -0.97200881E-03 -0.30951951E-08 
    2    1    0.46711420E-03 -0.86549190E-09 
    3    1    0.46711513E-03  0.61408870E-08 
    4    1   -0.13726734E-03 -0.66844879E-08 
    1    2    0.12706182E-02 -0.12977447E-07 
    2    2   -0.61860056E-03  0.14468253E-08 
    3    2    0.27675336E-03  0.26061811E-08 
    4    2   -0.49357674E-03  0.40769942E-08 
    1    3    0.12706010E-02  0.41133191E-08 
    2    3    0.27674272E-03 -0.12094551E-08 
    3    3   -0.61860056E-03 -0.12305931E-08 
    4    3   -0.49358583E-03  0.39938431E-08 
    1    4   -0.95164262E-03  0.78983797E-08 
    2    4   -0.69388301E-04  0.50384375E-09 
    3    4   -0.69390073E-04 -0.61128116E-08 
    4    4    0.78961268E-03  0.28793866E-08 

   -3    2    3
    1    1    0.33072979E-03  0.16973308E-08 
    2    1    0.58225171E-04  0.56096025E-08 
    3    1   -0.18868455E-03 -0.29580040E-08 
    4    1   -0.69379025E-04 -0.13039296E-08 
    1    2    0.58225772E-04 -0.36730751E-08 
    2    2    0.33072234E-03 -0.22675974E-08 
    3    2   -0.18867192E-03  0.20803347E-08 
    4    2   -0.69386659E-04  0.93491675E-08 
    1    3   -0.69386995E-04 -0.80711897E-08 
    2    3   -0.69384234E-04  0.90417582E-08 
    3    3    0.57169226E-03  0.83649277E-09 
    4    3   -0.50237182E-03 -0.17980971E-08 
    1    4   -0.18867964E-03 -0.31458663E-08 
    2    4   -0.18866514E-03  0.13124053E-08 
    3    4   -0.26010661E-03  0.22344682E-07 
    4    4    0.57168897E-03 -0.26495977E-09 

   -3    3   -3
    1    1    0.78243172E-03  0.31752714E-15 
    2    1   -0.26010162E-03 -0.32972625E-07 
    3    1   -0.26011022E-03  0.16894405E-07 
    4    1   -0.26010949E-03 -0.93977635E-08 
    1    2   -0.26010162E-03  0.32972626E-07 
    2    2    0.78243912E-03  0.40939333E-15 
    3    2   -0.26010146E-03  0.42455219E-07 
    4    2   -0.26010522E-03  0.15918979E-07 
    1    3   -0.26011024E-03 -0.16894404E-07 
    2    3   -0.26010148E-03 -0.42455219E-07 
    3    3    0.78244023E-03 -0.91851512E-15 
    4    3   -0.26010762E-03 -0.29503795E-07 
    1    4   -0.26010954E-03  0.93977622E-08 
    2    4   -0.26010527E-03 -0.15918979E-07 
    3    4   -0.26010759E-03  0.29503794E-07 
    4    4    0.78243723E-03  0.79355072E-15 

   -3    3   -2
    1    1    0.33072643E-03 -0.63593245E-09 
    2    1   -0.69377717E-04 -0.28926692E-08 
    3    1    0.58227863E-04  0.32723342E-08 
    4    1   -0.18868006E-03  0.12890828E-08 
    1    2   -0.18867688E-03  0.10615489E-08 
    2    2    0.57169327E-03 -0.21085554E-08 
    3    2   -0.18866823E-03  0.38444255E-08 
    4    2   -0.26011144E-03  0.45790835E-08 
    1    3    0.58221758E-04  0.54664312E-08 
    2    3   -0.69372369E-04  0.44996585E-09 
    3    3    0.33072353E-03  0.30062948E-08 
    4    3   -0.18868716E-03  0.25220306E-08 
    1    4   -0.69387542E-04 -0.34650924E-08 
    2    4   -0.50237601E-03 -0.71498399E-08 
    3    4   -0.69381477E-04  0.26492885E-08 
    4    4    0.57169012E-03 -0.26182235E-09 

   -3    3   -1
    1    1   -0.12594568E-02 -0.55667299E-08 
    2    1    0.42918640E-03 -0.22274378E-08 
    3    1    0.58080245E-03 -0.45083310E-08 
    4    1    0.27674505E-03 -0.36330344E-08 
    1    2    0.27673963E-03 -0.15641983E-08 
    2    2   -0.21421562E-03  0.57331867E-09 
    3    2    0.27674750E-03 -0.19904572E-08 
    4    2   -0.50238121E-03  0.65333139E-08 
    1    3    0.58080983E-03 -0.55148137E-08 
    2    3    0.42919087E-03  0.46946985E-08 
    3    3   -0.12594543E-02  0.62192761E-08 
    4    3    0.27674367E-03  0.36088384E-08 
    1    4    0.42918556E-03  0.61531591E-08 
    2    4    0.17142429E-03 -0.70655950E-08 
    3    4    0.42918231E-03  0.27403818E-08 
    4    4   -0.21422029E-03 -0.12235629E-08 

   -3    3    0
    1    1    0.26292676E-01  0.36639992E-15 
    2    1    0.72612789E-03  0.28837920E-08 
    3    1   -0.33624128E-01  0.10304094E-07 
    4    1    0.72611399E-03  0.38766633E-08 
    1    2    0.72612797E-03 -0.28837925E-08 
    2    2   -0.10707488E-02  0.76411323E-16 
    3    2    0.72612801E-03 -0.12568238E-08 
    4    2    0.17142115E-03  0.12425199E-08 
    1    3   -0.33624128E-01 -0.10304095E-07 
    2    3    0.72612810E-03  0.12568238E-08 
    3    3    0.26292678E-01 -0.45998068E-15 
    4    3    0.72612080E-03  0.15953055E-08 
    1    4    0.72611417E-03 -0.38766646E-08 
    2    4    0.17142115E-03 -0.12425189E-08 
    3    4    0.72612062E-03 -0.15953049E-08 
    4    4   -0.10707529E-02  0.23091477E-16 

   -3    3    1
    1    1   -0.12594568E-02  0.55667306E-08 
    2    1    0.27673967E-03  0.15641984E-08 
    3    1    0.58080984E-03  0.55148133E-08 
    4    1    0.42918557E-03 -0.61531586E-08 
    1    2    0.42918640E-03  0.22274382E-08 
    2    2   -0.21421562E-03 -0.57331861E-09 
    3    2    0.42919087E-03 -0.46946980E-08 
    4    2    0.17142429E-03  0.70655955E-08 
    1    3    0.58080243E-03  0.45083300E-08 
    2    3    0.27674745E-03  0.19904570E-08 
    3    3   -0.12594543E-02 -0.62192763E-08 
    4    3    0.42918230E-03 -0.27403815E-08 
    1    4    0.27674504E-03  0.36330346E-08 
    2    4   -0.50238121E-03 -0.65333139E-08 
    3    4    0.27674368E-03 -0.36088388E-08 
    4    4   -0.21422029E-03  0.12235624E-08 

   -3    3    2
    1    1    0.33072605E-03  0.63593195E-09 
    2    1   -0.18867674E-03 -0.10615488E-08 
    3    1    0.58221887E-04 -0.54664310E-08 
    4    1   -0.69387521E-04  0.34650936E-08 
    1    2   -0.69377308E-04  0.28926696E-08 
    2    2    0.57169327E-03  0.21085555E-08 
    3    2   -0.69372777E-04 -0.44996476E-09 
    4    2   -0.50237601E-03  0.71498386E-08 
    1    3    0.58227734E-04 -0.32723343E-08 
    2    3   -0.18866837E-03 -0.38444253E-08 
    3    3    0.33072391E-03 -0.30062940E-08 
    4    3   -0.69381498E-04 -0.26492883E-08 
    1    4   -0.18867987E-03 -0.12890837E-08 
    2    4   -0.26011144E-03 -0.45790833E-08 
    3    4   -0.18868736E-03 -0.25220311E-08 
    4    4    0.57169012E-03  0.26182200E-09 

   -3    3    3
    1    1    0.78243172E-03 -0.79152427E-15 
    2    1   -0.26010161E-03 -0.32972625E-07 
    3    1   -0.26011022E-03  0.16894404E-07 
    4    1   -0.26010950E-03 -0.93977629E-08 
    1    2   -0.26010164E-03  0.32972626E-07 
    2    2    0.78243912E-03  0.22151536E-15 
    3    2   -0.26010147E-03  0.42455220E-07 
    4    2   -0.26010527E-03  0.15918979E-07 
    1    3   -0.26011024E-03 -0.16894405E-07 
    2    3   -0.26010147E-03 -0.42455219E-07 
    3    3    0.78244023E-03 -0.31737042E-15 
    4    3   -0.26010763E-03 -0.29503795E-07 
    1    4   -0.26010953E-03  0.93977627E-08 
    2    4   -0.26010522E-03 -0.15918979E-07 
    3    4   -0.26010758E-03  0.29503795E-07 
    4    4    0.78243723E-03  0.30001997E-15 

   -2   -3    2
    1    1    0.57169347E-03 -0.11457660E-07 
    2    1   -0.26010024E-03 -0.25640048E-07 
    3    1   -0.18867492E-03 -0.12243191E-09 
    4    1   -0.18868379E-03 -0.74871311E-08 
    1    2   -0.50237333E-03  0.39305087E-08 
    2    2    0.57169264E-03  0.45644164E-08 
    3    2   -0.69389055E-04  0.57751483E-08 
    4    2   -0.69378455E-04 -0.20452824E-08 
    1    3   -0.69380885E-04 -0.58630315E-09 
    2    3   -0.18867162E-03 -0.25273325E-08 
    3    3    0.33072438E-03  0.67698217E-08 
    4    3    0.58229792E-04 -0.98607841E-10 
    1    4   -0.69391097E-04  0.18097023E-08 
    2    4   -0.18868361E-03 -0.28427898E-08 
    3    4    0.58224312E-04  0.49086458E-08 
    4    4    0.33072406E-03  0.12277436E-09 

   -2   -3    3
    1    1    0.57169590E-03  0.80402848E-08 
    2    1   -0.18868057E-03 -0.69491251E-09 
    3    1   -0.18867151E-03 -0.56437816E-08 
    4    1   -0.26011070E-03 -0.85250056E-08 
    1    2   -0.69385569E-04  0.13412878E-08 
    2    2    0.33072029E-03  0.99597823E-09 
    3    2    0.58220280E-04  0.10325861E-08 
    4    2   -0.18865990E-03  0.52104402E-08 
    1    3   -0.69373350E-04  0.48099383E-08 
    2    3    0.58225185E-04  0.16729812E-08 
    3    3    0.33072307E-03 -0.23778054E-08 
    4    3   -0.18867961E-03 -0.50961640E-08 
    1    4   -0.50237470E-03 -0.15521033E-08 
    2    4   -0.69387918E-04  0.21066662E-09 
    3    4   -0.69384089E-04 -0.68079511E-09 
    4    4    0.57169410E-03 -0.66576747E-08 

   -2   -2    0
    1    1    0.80451627E-03  0.20405768E-08 
    2    1   -0.13726841E-03  0.40068174E-10 
    3    1   -0.43090827E-03  0.35557545E-08 
    4    1   -0.43090475E-03  0.39612723E-08 
    1    2   -0.29850008E-03 -0.71766857E-08 
    2    2    0.53380744E-03 -0.47969827E-09 
    3    2   -0.29849853E-03  0.53226360E-08 
    4    2   -0.29849907E-03  0.12299706E-08 
    1    3   -0.43091018E-03  0.13598218E-09 
    2    3   -0.13726700E-03 -0.11295981E-08 
    3    3    0.80451879E-03  0.96685834E-09 
    4    3   -0.43089780E-03  0.45243462E-09 
    1    4   -0.43091114E-03 -0.17351675E-08 
    2    4   -0.13726328E-03  0.83953730E-09 
    3    4   -0.43089984E-03 -0.38844135E-08 
    4    4    0.80451208E-03 -0.25306597E-08 

   -2   -2    1
    1    1   -0.61860578E-03  0.25015882E-08 
    2    1   -0.69379203E-04  0.60547551E-09 
    3    1    0.27675455E-03  0.63006561E-08 
    4    1    0.46710738E-03  0.44386826E-08 
    1    2   -0.49358764E-03  0.57652695E-08 
    2    2    0.78961431E-03 -0.22382207E-08 
    3    2   -0.49358024E-03 -0.69673843E-09 
    4    2   -0.13726314E-03  0.29962507E-08 
    1    3    0.27674904E-03  0.27409681E-08 
    2    3   -0.69384501E-04 -0.69937316E-08 
    3    3   -0.61860606E-03  0.29296712E-08 
    4    3    0.46711225E-03  0.47529627E-09 
    1    4    0.12706041E-02 -0.60643607E-08 
    2    4   -0.95164383E-03 -0.29464520E-08 
    3    4    0.12706068E-02 -0.33766712E-08 
    4    4   -0.97199967E-03 -0.31931580E-08 

   -2   -2    2
    1    1    0.65506947E-03 -0.72827324E-08 
    2    1    0.58223041E-04  0.54742697E-09 
    3    1   -0.95163958E-03  0.29879953E-08 
    4    1    0.58222912E-04  0.12387653E-07 
    1    2    0.32659433E-03 -0.43126662E-08 
    2    2    0.65505943E-03 -0.19150024E-08 
    3    2    0.32659115E-03  0.18436130E-08 
    4    2   -0.95164750E-03  0.44330934E-08 
    1    3   -0.95164914E-03 -0.58319301E-09 
    2    3    0.58224938E-04  0.37814890E-08 
    3    3    0.65507300E-03  0.47384551E-08 
    4    3    0.58232261E-04 -0.10284184E-07 
    1    4    0.32659090E-03 -0.18773304E-08 
    2    4   -0.95164599E-03 -0.49718195E-08 
    3    4    0.32658977E-03  0.47265433E-08 
    4    4    0.65507777E-03  0.44602913E-08 

   -2   -2    3
    1    1   -0.61860812E-03 -0.14135015E-08 
    2    1    0.46710358E-03  0.95147730E-08 
    3    1    0.27674693E-03 -0.54261511E-08 
    4    1   -0.69388276E-04  0.36842011E-08 
    1    2    0.12706171E-02  0.90220242E-08 
    2    2   -0.97200169E-03 -0.50498354E-08 
    3    2    0.12706019E-02  0.19216221E-08 
    4    2   -0.95164595E-03  0.31239534E-08 
    1    3    0.27674260E-03 -0.52716184E-08 
    2    3    0.46711855E-03 -0.19418450E-08 
    3    3   -0.61860678E-03  0.52375663E-08 
    4    3   -0.69377753E-04  0.42806696E-08 
    1    4   -0.49358129E-03 -0.13189000E-07 
    2    4   -0.13726143E-03 -0.47354050E-10 
    3    4   -0.49358439E-03 -0.19487388E-08 
    4    4    0.78961934E-03  0.12252781E-08 

   -2   -2    4
    1    1    0.80451476E-03 -0.24772602E-08 
    2    1   -0.43090302E-03 -0.35194212E-08 
    3    1   -0.43090007E-03  0.36020249E-08 
    4    1   -0.13727175E-03 -0.21284219E-08 
    1    2   -0.43090265E-03  0.15372552E-08 
    2    2    0.80451304E-03  0.74274177E-08 
    3    2   -0.43091493E-03  0.12889194E-08 
    4    2   -0.13727294E-03 -0.57741926E-08 
    1    3   -0.43090647E-03  0.78360007E-08 
    2    3   -0.43089372E-03  0.29778796E-08 
    3    3    0.80451268E-03 -0.45564092E-08 
    4    3   -0.13725985E-03  0.26470864E-08 
    1    4   -0.29850132E-03 -0.58516380E-08 
    2    4   -0.29850162E-03 -0.17670220E-08 
    3    4   -0.29849787E-03 -0.74618034E-09 
    4    4    0.53381045E-03 -0.39350712E-09 

   -2   -1   -1
    1    1    0.11770384E-02  0.23882270E-08 
    2    1   -0.14339390E-03  0.84470868E-10 
    3    1   -0.14340178E-03 -0.45150694E-08 
    4    1   -0.53218588E-03 -0.80874333E-10 
    1    2   -0.25802962E-03  0.48159126E-08 
    2    2    0.63351482E-03 -0.19209753E-08 
    3    2   -0.29849484E-03  0.54568273E-08 
    4    2   -0.25802680E-03 -0.45766476E-08 
    1    3   -0.25801979E-03 -0.91392931E-09 
    2    3   -0.29850315E-03  0.35984183E-08 
    3    3    0.63351749E-03 -0.22602339E-08 
    4    3   -0.25802764E-03 -0.53316178E-08 
    1    4   -0.53218511E-03 -0.62589159E-09 
    2    4   -0.14339155E-03 -0.45535347E-08 
    3    4   -0.14339758E-03  0.34747563E-08 
    4    4    0.11770442E-02  0.17939924E-08 

   -2   -1    0
    1    1   -0.16459908E-02  0.49084542E-08 
    2    1    0.42918694E-03  0.23787546E-08 
    3    1    0.72613576E-03 -0.16510172E-08 
    4    1   -0.62539481E-03 -0.20326179E-08 
    1    2   -0.72419754E-03  0.10272487E-07 
    2    2    0.78161387E-03 -0.24789324E-08 
    3    2   -0.38736980E-03  0.15339075E-09 
    4    2   -0.14340072E-03 -0.16478893E-08 
    1    3    0.26461225E-02 -0.73558741E-08 
    2    3   -0.49358218E-03 -0.85334071E-09 
    3    3   -0.97632552E-03  0.19411073E-08 
    4    3   -0.43090413E-03  0.35688912E-08 
    1    4   -0.12177703E-02 -0.62893332E-08 
    2    4   -0.14219365E-02  0.50554627E-09 
    3    4    0.52757449E-03  0.87988926E-08 
    4    4    0.24899803E-02 -0.43701949E-08 

   -2   -1    1
    1    1   -0.13526805E-02  0.12901661E-09 
    2    1    0.12706111E-02 -0.56824507E-08 
    3    1   -0.14219323E-02 -0.53599251E-08 
    4    1    0.58081152E-03 -0.62013785E-08 
    1    2    0.29022296E-02 -0.75784330E-08 
    2    2    0.87847712E-03  0.24022475E-08 
    3    2   -0.10866944E-02  0.15405430E-08 
    4    2   -0.14219315E-02  0.84431197E-09 
    1    3   -0.33447654E-02  0.23532172E-08 
    2    3    0.32659807E-03  0.74068459E-08 
    3    3    0.87848826E-03  0.61150261E-08 
    4    3    0.12706118E-02 -0.41847279E-09 
    1    4    0.44385029E-02  0.60338667E-08 
    2    4   -0.33447789E-02  0.75409670E-08 
    3    4    0.29022398E-02  0.36585845E-08 
    4    4   -0.13526720E-02 -0.86436431E-08 

   -2   -1    2
    1    1   -0.13526758E-02 -0.71173483E-08 
    2    1    0.58080945E-03  0.71757912E-08 
    3    1   -0.14219322E-02  0.21147381E-08 
    4    1    0.12706127E-02  0.42461661E-08 
    1    2    0.44385220E-02 -0.37817293E-08 
    2    2   -0.13526729E-02 -0.18610930E-08 
    3    2    0.29022375E-02 -0.32156587E-09 
    4    2   -0.33447736E-02  0.48601404E-08 
    1    3   -0.33447745E-02 -0.55033888E-08 
    2    3    0.12706124E-02 -0.40514641E-08 
    3    3    0.87848332E-03  0.90851768E-08 
    4    3    0.32658585E-03 -0.11533738E-07 
    1    4    0.29022336E-02  0.16226382E-08 
    2    4   -0.14219288E-02  0.11601656E-08 
    3    4   -0.10867331E-02  0.10153183E-07 
    4    4    0.87849217E-03 -0.10738313E-09 

   -2   -1    3
    1    1   -0.16459949E-02 -0.84378265E-08 
    2    1   -0.62538408E-03  0.68042490E-08 
    3    1    0.72612170E-03  0.36344149E-09 
    4    1    0.42918231E-03 -0.66187920E-08 
    1    2   -0.12177781E-02 -0.79198410E-08 
    2    2    0.24899828E-02  0.23472379E-08 
    3    2    0.52755807E-03  0.78973147E-09 
    4    2   -0.14219335E-02 -0.55028889E-08 
    1    3    0.26461204E-02  0.90794213E-08 
    2    3   -0.43089464E-03  0.26445198E-08 
    3    3   -0.97631821E-03  0.36635050E-08 
    4    3   -0.49358195E-03  0.70931194E-08 
    1    4   -0.72420825E-03 -0.88080037E-08 
    2    4   -0.14339284E-03 -0.29296091E-08 
    3    4   -0.38737599E-03  0.81970875E-09 
    4    4    0.78162246E-03  0.24265304E-08 

   -2   -1    4
    1    1    0.11770429E-02 -0.64803810E-09 
    2    1   -0.53218576E-03  0.30580396E-08 
    3    1   -0.14339609E-03  0.56866221E-08 
    4    1   -0.14340152E-03  0.71014894E-09 
    1    2   -0.53218371E-03  0.20202840E-08 
    2    2    0.11770377E-02 -0.10375018E-09 
    3    2   -0.14339655E-03 -0.59362873E-08 
    4    2   -0.14340108E-03 -0.22191745E-08 
    1    3   -0.25801962E-03 -0.19876042E-08 
    2    3   -0.25802300E-03  0.29418301E-08 
    3    3    0.63351614E-03 -0.12893104E-08 
    4    3   -0.29849660E-03 -0.44909857E-08 
    1    4   -0.25802715E-03  0.53046219E-08 
    2    4   -0.25802743E-03 -0.19577472E-08 
    3    4   -0.29850001E-03 -0.37497284E-08 
    4    4    0.63351845E-03  0.20441053E-08 

   -2    0   -2
    1    1    0.80451718E-03 -0.16092795E-08 
    2    1   -0.43091559E-03  0.89535515E-08 
    3    1   -0.13727402E-03 -0.17830558E-09 
    4    1   -0.43090056E-03 -0.27695637E-08 
    1    2   -0.43090517E-03  0.22505901E-08 
    2    2    0.80451732E-03 -0.39687634E-08 
    3    2   -0.13726424E-03 -0.56728310E-08 
    4    2   -0.43090836E-03  0.24100158E-08 
    1    3   -0.29850051E-03 -0.33998921E-08 
    2    3   -0.29849652E-03 -0.12885406E-08 
    3    3    0.53380915E-03 -0.65106450E-09 
    4    3   -0.29849534E-03  0.41141942E-08 
    1    4   -0.43089897E-03 -0.67332801E-08 
    2    4   -0.43090451E-03 -0.56168688E-08 
    3    4   -0.13726210E-03  0.41114433E-08 
    4    4    0.80451093E-03  0.62301743E-08 

   -2    0   -1
    1    1   -0.16459955E-02 -0.52147616E-08 
    2    1    0.72612377E-03  0.19478658E-09 
    3    1    0.42918306E-03  0.51082016E-08 
    4    1   -0.62539302E-03 -0.24334680E-08 
    1    2    0.26461315E-02  0.76213724E-08 
    2    2   -0.97632644E-03 -0.27746078E-08 
    3    2   -0.49358369E-03 -0.41255176E-08 
    4    2   -0.43090456E-03 -0.58875736E-08 
    1    3   -0.72421093E-03 -0.21414746E-08 
    2    3   -0.38736253E-03  0.48939312E-08 
    3    3    0.78161770E-03 -0.68300106E-08 
    4    3   -0.14339752E-03 -0.56267423E-08 
    1    4   -0.12177718E-02 -0.62770435E-08 
    2    4    0.52758913E-03 -0.34674741E-08 
    3    4   -0.14219354E-02  0.11945903E-07 
    4    4    0.24899821E-02  0.14822483E-07 

   -2    0    0
    1    1    0.54316752E-01  0.68183917E-08 
    2    1    0.52758432E-03 -0.67211457E-08 
    3    1    0.52757475E-03 -0.12638021E-08 
    4    1   -0.33624106E-01  0.14992946E-08 
    1    2    0.30991653E-02  0.10527056E-07 
    2    2   -0.27144917E-02 -0.66310176E-08 
    3    2   -0.10867001E-02 -0.10804520E-07 
    4    2    0.52758758E-03  0.24015387E-08 
    1    3    0.30991566E-02 -0.10183848E-08 
    2    3   -0.10866920E-02  0.65734542E-08 
    3    3   -0.27144911E-02  0.69780353E-08 
    4    3    0.52758050E-03  0.27462002E-09 
    1    4   -0.12457789E+00 -0.11903077E-07 
    2    4    0.30991725E-02  0.12315139E-07 
    3    4    0.30991754E-02  0.95995173E-09 
    4    4    0.54316759E-01 -0.71630330E-08 

   -2    0    1
    1    1    0.93087115E-02  0.68949383E-08 
    2    1   -0.12177676E-02  0.83270247E-09 
    3    1   -0.46119410E-03 -0.56037520E-08 
    4    1   -0.12177758E-02  0.54108728E-08 
    1    2    0.13148734E-01  0.10929828E-07 
    2    2   -0.94855033E-02 -0.13025258E-08 
    3    2   -0.12114942E-02 -0.52746609E-08 
    4    2    0.30991555E-02 -0.59672670E-08 
    1    3   -0.15490067E-01 -0.52989257E-10 
    2    3    0.29022378E-02  0.52787720E-08 
    3    3    0.28432762E-02  0.11127832E-07 
    4    3    0.29022394E-02 -0.30301307E-08 
    1    4    0.13148752E-01  0.72650809E-08 
    2    4    0.30991530E-02  0.48106850E-08 
    3    4   -0.12115194E-02 -0.42642467E-08 
    4    4   -0.94855046E-02 -0.16719667E-07 

   -2    0    2
    1    1    0.54316785E-01  0.52344097E-08 
    2    1   -0.33624131E-01 -0.42780690E-09 
    3    1    0.52755348E-03 -0.12901541E-07 
    4    1    0.52755819E-03  0.34280111E-08 
    1    2   -0.12457792E+00 -0.11523195E-07 
    2    2    0.54316782E-01  0.14315652E-10 
    3    2    0.30991298E-02  0.70946650E-08 
    4    2    0.30991214E-02 -0.24358783E-07 
    1    3    0.30991249E-02  0.85908778E-08 
    2    3    0.52755397E-03  0.13228464E-08 
    3    3   -0.27144625E-02 -0.30615592E-09 
    4    3   -0.10867218E-02  0.66232195E-08 
    1    4    0.30991555E-02  0.65819830E-08 
    2    4    0.52755210E-03  0.41285575E-08 
    3    4   -0.10867238E-02  0.89088974E-08 
    4    4   -0.27144779E-02 -0.49426822E-08 

   -2    0    3
    1    1   -0.16459950E-02  0.18636825E-08 
    2    1   -0.62539982E-03 -0.33505683E-09 
    3    1    0.42918266E-03  0.13001753E-08 
    4    1    0.72612196E-03 -0.63454684E-08 
    1    2   -0.12177721E-02  0.13580426E-08 
    2    2    0.24899863E-02 -0.55849660E-08 
    3    2   -0.14219288E-02 -0.19630743E-08 
    4    2    0.52755487E-03 -0.52829521E-08 
    1    3   -0.72420506E-03 -0.16745551E-08 
    2    3   -0.14339462E-03  0.42972204E-08 
    3    3    0.78161923E-03  0.18605522E-08 
    4    3   -0.38736881E-03  0.52505239E-09 
    1    4    0.26461191E-02  0.55981990E-08 
    2    4   -0.43090210E-03 -0.16522177E-08 
    3    4   -0.49357587E-03  0.15173785E-08 
    4    4   -0.97631964E-03  0.18616567E-08 

   -2    0    4
    1    1    0.80451718E-03 -0.16092793E-08 
    2    1   -0.43091311E-03  0.89535510E-08 
    3    1   -0.13727402E-03 -0.17830487E-09 
    4    1   -0.43090304E-03 -0.27695638E-08 
    1    2   -0.43089591E-03  0.22505916E-08 
    2    2    0.80451319E-03 -0.39687638E-08 
    3    2   -0.13726454E-03 -0.56728324E-08 
    4    2   -0.43090855E-03  0.24100177E-08 
    1    3   -0.29850051E-03 -0.33998930E-08 
    2    3   -0.29849664E-03 -0.12885404E-08 
    3    3    0.53380915E-03 -0.65106385E-09 
    4    3   -0.29849523E-03  0.41141937E-08 
    1    4   -0.43090823E-03 -0.67332815E-08 
    2    4   -0.43090432E-03 -0.56168682E-08 
    3    4   -0.13726180E-03  0.41114427E-08 
    4    4    0.80451507E-03  0.62301741E-08 

   -2    1   -2
    1    1   -0.61861082E-03  0.25156151E-09 
    2    1    0.27674199E-03  0.69491723E-08 
    3    1   -0.69389350E-04  0.89639060E-09 
    4    1    0.46711016E-03  0.30309633E-08 
    1    2    0.27674711E-03 -0.58788754E-08 
    2    2   -0.61860201E-03 -0.10601748E-08 
    3    2   -0.69385375E-04  0.20118497E-08 
    4    2    0.46710883E-03 -0.63090422E-09 
    1    3   -0.49358657E-03  0.50435106E-08 
    2    3   -0.49357478E-03 -0.28525451E-08 
    3    3    0.78961643E-03  0.21739796E-08 
    4    3   -0.13726684E-03  0.16514213E-08 
    1    4    0.12706139E-02 -0.10198320E-07 
    2    4    0.12706064E-02  0.15536960E-08 
    3    4   -0.95164601E-03  0.86140686E-09 
    4    4   -0.97200081E-03 -0.13630804E-08 

   -2    1   -1
    1    1   -0.13526798E-02 -0.55639368E-08 
    2    1   -0.14219398E-02 -0.81147063E-08 
    3    1    0.12706037E-02  0.92864804E-08 
    4    1    0.58080352E-03  0.62275668E-09 
    1    2   -0.33447748E-02  0.11292484E-07 
    2    2    0.87848776E-03  0.23438359E-08 
    3    2    0.32659487E-03 -0.80783825E-09 
    4    2    0.12706128E-02 -0.98891766E-08 
    1    3    0.29022342E-02 -0.56698453E-08 
    2    3   -0.10866979E-02 -0.23879469E-08 
    3    3    0.87847722E-03 -0.35715212E-08 
    4    3   -0.14219315E-02  0.49361915E-09 
    1    4    0.44385307E-02 -0.63116351E-08 
    2    4    0.29022440E-02  0.81078076E-08 
    3    4   -0.33447736E-02  0.40502539E-08 
    4    4   -0.13526723E-02  0.67934984E-08 

   -2    1    0
    1    1    0.93087047E-02 -0.51987982E-08 
    2    1   -0.46119793E-03 -0.39003954E-08 
    3    1   -0.12177670E-02  0.40087705E-08 
    4    1   -0.12177600E-02 -0.28067851E-08 
    1    2   -0.15490024E-01 -0.73699240E-08 
    2    2    0.28432662E-02 -0.61078334E-08 
    3    2    0.29022244E-02  0.19385252E-08 
    4    2    0.29022361E-02 -0.33030686E-08 
    1    3    0.13148775E-01  0.52912181E-09 
    2    3   -0.12115303E-02  0.10259970E-07 
    3    3   -0.94854934E-02  0.35906700E-08 
    4    3    0.30991622E-02 -0.88902981E-08 
    1    4    0.13148758E-01  0.39522117E-07 
    2    4   -0.12115289E-02 -0.69964158E-08 
    3    4    0.30991382E-02  0.14737058E-08 
    4    4   -0.94854977E-02  0.77152758E-08 

   -2    1    1
    1    1    0.93087099E-02 -0.37051836E-08 
    2    1   -0.12177682E-02 -0.56387063E-10 
    3    1   -0.12177731E-02  0.40562425E-08 
    4    1   -0.46119738E-03  0.69957259E-08 
    1    2    0.13148727E-01 -0.13300942E-07 
    2    2   -0.94854942E-02 -0.43194136E-08 
    3    2    0.30991484E-02 -0.82561069E-08 
    4    2   -0.12115106E-02 -0.43692723E-08 
    1    3    0.13148733E-01  0.11563016E-08 
    2    3    0.30991392E-02  0.79999930E-09 
    3    3   -0.94854878E-02  0.75832556E-08 
    4    3   -0.12115079E-02  0.66450343E-08 
    1    4   -0.15490041E-01  0.14452398E-07 
    2    4    0.29022359E-02  0.58196151E-08 
    3    4    0.29022309E-02 -0.10823021E-07 
    4    4    0.28432659E-02  0.44191914E-09 

   -2    1    2
    1    1   -0.13526794E-02 -0.35188493E-09 
    2    1    0.58080554E-03 -0.38148002E-08 
    3    1    0.12706134E-02 -0.28612762E-09 
    4    1   -0.14219257E-02  0.30511985E-08 
    1    2    0.44385164E-02 -0.14258187E-08 
    2    2   -0.13526706E-02  0.70762181E-08 
    3    2   -0.33447765E-02  0.29028272E-08 
    4    2    0.29022384E-02  0.36607120E-08 
    1    3    0.29022375E-02  0.14426005E-08 
    2    3   -0.14219371E-02  0.23754029E-09 
    3    3    0.87849399E-03  0.16217872E-08 
    4    3   -0.10867248E-02 -0.48618818E-08 
    1    4   -0.33447745E-02 -0.20030616E-07 
    2    4    0.12706096E-02  0.10187043E-07 
    3    4    0.32658472E-03  0.30419935E-08 
    4    4    0.87848277E-03 -0.83454708E-08 

   -2    1    3
    1    1   -0.61860205E-03  0.17154054E-08 
    2    1    0.46710220E-03 -0.98862110E-09 
    3    1   -0.69380574E-04  0.23133993E-08 
    4    1    0.27675069E-03 -0.14849608E-08 
    1    2    0.12706109E-02  0.46355656E-08 
    2    2   -0.97199651E-03  0.40204112E-08 
    3    2   -0.95164379E-03 -0.84011668E-09 
    4    2    0.12706105E-02 -0.81705475E-08 
    1    3   -0.49358552E-03  0.39388633E-08 
    2    3   -0.13726300E-03 -0.35718965E-08 
    3    3    0.78961591E-03  0.49650886E-09 
    4    3   -0.49358354E-03 -0.26943679E-08 
    1    4    0.27675249E-03  0.43460143E-08 
    2    4    0.46709965E-03  0.49926147E-08 
    3    4   -0.69389019E-04 -0.47813966E-08 
    4    4   -0.61861465E-03 -0.62308216E-08 

   -2    2   -3
    1    1    0.57168993E-03  0.74903389E-08 
    2    1   -0.18868102E-03  0.52381854E-09 
    3    1   -0.26010886E-03  0.11392554E-07 
    4    1   -0.18867714E-03  0.47794720E-08 
    1    2   -0.69382548E-04 -0.29601534E-08 
    2    2    0.33072909E-03 -0.72321522E-08 
    3    2   -0.18868600E-03  0.51387903E-08 
    4    2    0.58226953E-04  0.23970856E-08 
    1    3   -0.50236831E-03  0.11079771E-08 
    2    3   -0.69378741E-04 -0.36717214E-08 
    3    3    0.57169558E-03  0.48584019E-09 
    4    3   -0.69382609E-04  0.12863780E-08 
    1    4   -0.69390712E-04 -0.23636671E-08 
    2    4    0.58227071E-04  0.54719525E-09 
    3    4   -0.18867578E-03  0.92325424E-09 
    4    4    0.33071996E-03 -0.74301465E-09 

   -2    2   -2
    1    1    0.65507523E-03  0.18865300E-08 
    2    1   -0.95164703E-03  0.37030795E-11 
    3    1    0.58226444E-04 -0.35148689E-08 
    4    1    0.58223026E-04  0.64373205E-08 
    1    2   -0.95164849E-03 -0.27432019E-08 
    2    2    0.65507141E-03  0.13551105E-08 
    3    2    0.58224838E-04  0.24634448E-08 
    4    2    0.58230899E-04  0.13878665E-08 
    1    3    0.32660033E-03  0.56201146E-08 
    2    3    0.32659828E-03 -0.58596052E-08 
    3    3    0.65506774E-03 -0.39654945E-08 
    4    3   -0.95165212E-03  0.42963120E-08 
    1    4    0.32658631E-03 -0.70799983E-08 
    2    4    0.32658535E-03  0.10597079E-08 
    3    4   -0.95164335E-03  0.75750642E-09 
    4    4    0.65506530E-03  0.72305354E-09 

   -2    2   -1
    1    1   -0.13526759E-02  0.38364539E-08 
    2    1   -0.14219400E-02 -0.64467341E-08 
    3    1    0.58079770E-03 -0.24641416E-08 
    4    1    0.12706086E-02  0.34850377E-08 
    1    2   -0.33447842E-02  0.40073387E-08 
    2    2    0.87848995E-03 -0.63879567E-08 
    3    2    0.12706077E-02  0.38318437E-08 
    4    2    0.32659099E-03  0.35348033E-08 
    1    3    0.44385331E-02 -0.35463227E-08 
    2    3    0.29022371E-02  0.10675257E-07 
    3    3   -0.13526768E-02  0.30520372E-08 
    4    3   -0.33447743E-02  0.20014078E-08 
    1    4    0.29022395E-02  0.46426894E-09 
    2    4   -0.10867260E-02 -0.99708955E-08 
    3    4   -0.14219301E-02 -0.26221737E-08 
    4    4    0.87848959E-03 -0.49933168E-09 

   -2    2    0
    1    1    0.54316783E-01 -0.50782821E-08 
    2    1    0.52755617E-03  0.51638872E-08 
    3    1   -0.33624132E-01  0.99736291E-08 
    4    1    0.52754413E-03  0.15040408E-08 
    1    2    0.30991414E-02 -0.47653970E-08 
    2    2   -0.27144649E-02  0.75180916E-09 
    3    2    0.52755490E-03  0.18657949E-08 
    4    2   -0.10867223E-02 -0.12728104E-07 
    1    3   -0.12457792E+00 -0.10718797E-07 
    2    3    0.30991238E-02  0.87648174E-08 
    3    3    0.54316785E-01  0.61992087E-08 
    4    3    0.30991453E-02  0.76573905E-08 
    1    4    0.30991329E-02 -0.37344885E-08 
    2    4   -0.10867286E-02 -0.25022815E-08 
    3    4    0.52755850E-03  0.12192150E-08 
    4    4   -0.27144764E-02 -0.18713475E-08 

   -2    2    1
    1    1   -0.13526878E-02 -0.33189818E-08 
    2    1    0.12706049E-02 -0.15012504E-08 
    3    1    0.58080942E-03  0.29658694E-08 
    4    1   -0.14219457E-02  0.59031354E-08 
    1    2    0.29022338E-02  0.10328903E-07 
    2    2    0.87849660E-03  0.61145222E-08 
    3    2   -0.14219234E-02 -0.46311745E-08 
    4    2   -0.10867316E-02  0.74423350E-08 
    1    3    0.44385206E-02 -0.58402245E-08 
    2    3   -0.33447769E-02 -0.29886369E-08 
    3    3   -0.13526726E-02 -0.75160785E-08 
    4    3    0.29022450E-02 -0.88520131E-08 
    1    4   -0.33447744E-02 -0.54701486E-08 
    2    4    0.32658739E-03  0.24904551E-08 
    3    4    0.12706122E-02 -0.96806642E-09 
    4    4    0.87849053E-03  0.47197927E-08 

   -2    2    2
    1    1    0.65506994E-03  0.29072997E-08 
    2    1    0.58227042E-04  0.64124887E-08 
    3    1    0.58223463E-04  0.51456804E-09 
    4    1   -0.95165009E-03 -0.30668035E-08 
    1    2    0.32659570E-03 -0.39517271E-08 
    2    2    0.65506885E-03 -0.28240916E-09 
    3    2   -0.95164360E-03 -0.13468890E-08 
    4    2    0.32659226E-03 -0.15553223E-08 
    1    3    0.32659819E-03 -0.34047475E-09 
    2    3   -0.95164675E-03 -0.12980211E-08 
    3    3    0.65507013E-03 -0.19444696E-08 
    4    3    0.32659703E-03  0.17427672E-09 
    1    4   -0.95165011E-03  0.79335324E-08 
    2    4    0.58222727E-04  0.38682242E-08 
    3    4    0.58216035E-04 -0.12831466E-08 
    4    4    0.65507077E-03 -0.68086039E-09 

   -2    2    3
    1    1    0.57168993E-03  0.74903394E-08 
    2    1   -0.18868122E-03  0.52381809E-09 
    3    1   -0.26010886E-03  0.11392554E-07 
    4    1   -0.18867695E-03  0.47794718E-08 
    1    2   -0.69383001E-04 -0.29601539E-08 
    2    2    0.33072909E-03 -0.72321530E-08 
    3    2   -0.18868580E-03  0.51387908E-08 
    4    2    0.58227056E-04  0.23970852E-08 
    1    3   -0.50236831E-03  0.11079774E-08 
    2    3   -0.69378287E-04 -0.36717205E-08 
    3    3    0.57169558E-03  0.48584093E-09 
    4    3   -0.69383062E-04  0.12863787E-08 
    1    4   -0.69390259E-04 -0.23636667E-08 
    2    4    0.58226968E-04  0.54719430E-09 
    3    4   -0.18867598E-03  0.92325405E-09 
    4    4    0.33071996E-03 -0.74301497E-09 

   -2    3   -3
    1    1    0.57169590E-03  0.80402845E-08 
    2    1   -0.18868071E-03 -0.69491116E-09 
    3    1   -0.18867137E-03 -0.56437814E-08 
    4    1   -0.26011070E-03 -0.85250066E-08 
    1    2   -0.69385978E-04  0.13412873E-08 
    2    2    0.33072067E-03  0.99597830E-09 
    3    2    0.58220408E-04  0.10325861E-08 
    4    2   -0.18866010E-03  0.52104399E-08 
    1    3   -0.69372941E-04  0.48099385E-08 
    2    3    0.58225056E-04  0.16729816E-08 
    3    3    0.33072269E-03 -0.23778053E-08 
    4    3   -0.18867942E-03 -0.50961630E-08 
    1    4   -0.50237470E-03 -0.15521039E-08 
    2    4   -0.69387939E-04  0.21066552E-09 
    3    4   -0.69384068E-04 -0.68079448E-09 
    4    4    0.57169410E-03 -0.66576747E-08 

   -2    3   -2
    1    1   -0.61861055E-03 -0.52569869E-08 
    2    1    0.27674894E-03  0.63773373E-08 
    3    1    0.46711004E-03  0.19406442E-08 
    4    1   -0.69371714E-04  0.10445445E-08 
    1    2    0.27675130E-03  0.31448363E-08 
    2    2   -0.61860477E-03 -0.33284779E-08 
    3    2    0.46710182E-03  0.50395277E-09 
    4    2   -0.69380152E-04 -0.24688259E-08 
    1    3    0.12706148E-02 -0.99475615E-08 
    2    3    0.12706159E-02 -0.71804887E-08 
    3    3   -0.97199596E-03  0.75820562E-08 
    4    3   -0.95165214E-03  0.39495707E-08 
    1    4   -0.49358695E-03  0.26295644E-08 
    2    4   -0.49358190E-03 -0.73355087E-10 
    3    4   -0.13727679E-03 -0.58722481E-08 
    4    4    0.78961403E-03  0.10042992E-08 

   -2    3   -1
    1    1   -0.16459984E-02 -0.86409946E-09 
    2    1    0.72611085E-03 -0.34108439E-08 
    3    1   -0.62539399E-03  0.13971923E-08 
    4    1    0.42918353E-03  0.31361216E-08 
    1    2    0.26461323E-02 -0.21762666E-08 
    2    2   -0.97631705E-03  0.12871623E-08 
    3    2   -0.43091376E-03 -0.17921872E-08 
    4    2   -0.49358528E-03 -0.88413941E-09 
    1    3   -0.12177776E-02  0.26498336E-08 
    2    3    0.52755956E-03 -0.45270760E-09 
    3    3    0.24899879E-02 -0.30386686E-08 
    4    3   -0.14219282E-02  0.14122041E-08 
    1    4   -0.72419798E-03 -0.72309344E-08 
    2    4   -0.38736917E-03  0.70837131E-08 
    3    4   -0.14339638E-03 -0.10143914E-08 
    4    4    0.78161972E-03  0.26149329E-08 

   -2    3    0
    1    1   -0.16459962E-02  0.29457018E-08 
    2    1    0.42918466E-03 -0.33416734E-09 
    3    1   -0.62539244E-03 -0.33597048E-08 
    4    1    0.72613001E-03  0.16209688E-10 
    1    2   -0.72419380E-03  0.72457861E-08 
    2    2    0.78161783E-03  0.26376778E-08 
    3    2   -0.14340163E-03  0.39814617E-08 
    4    2   -0.38737620E-03  0.12152700E-08 
    1    3   -0.12177730E-02  0.11206919E-09 
    2    3   -0.14219439E-02  0.75889047E-08 
    3    3    0.24899852E-02 -0.96300867E-11 
    4    3    0.52755907E-03 -0.30927118E-08 
    1    4    0.26461168E-02 -0.13463940E-08 
    2    4   -0.49358611E-03 -0.18163858E-08 
    3    4   -0.43089916E-03 -0.26713302E-08 
    4    4   -0.97631588E-03 -0.55731837E-08 

   -2    3    1
    1    1   -0.61861016E-03  0.60988426E-08 
    2    1   -0.69382805E-04  0.64396122E-08 
    3    1    0.46711574E-03  0.78822679E-08 
    4    1    0.27674656E-03 -0.58805509E-08 
    1    2   -0.49358301E-03  0.33930618E-08 
    2    2    0.78961405E-03  0.42623332E-08 
    3    2   -0.13726784E-03 -0.29846732E-08 
    4    2   -0.49358203E-03 -0.75175929E-08 
    1    3    0.12706077E-02  0.32708175E-09 
    2    3   -0.95164808E-03 -0.26945454E-08 
    3    3   -0.97199236E-03 -0.46851265E-08 
    4    3    0.12706114E-02  0.45168666E-08 
    1    4    0.27674562E-03 -0.15617120E-08 
    2    4   -0.69388238E-04  0.18169167E-09 
    3    4    0.46710353E-03  0.29146222E-08 
    4    4   -0.61860882E-03 -0.56738358E-08 

   -2    3    2
    1    1    0.57169347E-03 -0.11457660E-07 
    2    1   -0.26010024E-03 -0.25640047E-07 
    3    1   -0.18867512E-03 -0.12243178E-09 
    4    1   -0.18868359E-03 -0.74871311E-08 
    1    2   -0.50237333E-03  0.39305087E-08 
    2    2    0.57169264E-03  0.45644156E-08 
    3    2   -0.69388601E-04  0.57751481E-08 
    4    2   -0.69378908E-04 -0.20452823E-08 
    1    3   -0.69381338E-04 -0.58630371E-09 
    2    3   -0.18867142E-03 -0.25273329E-08 
    3    3    0.33072438E-03  0.67698223E-08 
    4    3    0.58229894E-04 -0.98608335E-10 
    1    4   -0.69390644E-04  0.18097039E-08 
    2    4   -0.18868381E-03 -0.28427905E-08 
    3    4    0.58224209E-04  0.49086463E-08 
    4    4    0.33072406E-03  0.12277499E-09 

   -2    4   -2
    1    1    0.80451476E-03 -0.24772611E-08 
    2    1   -0.43090297E-03 -0.35194205E-08 
    3    1   -0.43090013E-03  0.36020251E-08 
    4    1   -0.13727175E-03 -0.21284220E-08 
    1    2   -0.43090257E-03  0.15372558E-08 
    2    2    0.80451306E-03  0.74274172E-08 
    3    2   -0.43091490E-03  0.12889185E-08 
    4    2   -0.13727303E-03 -0.57741923E-08 
    1    3   -0.43090655E-03  0.78360000E-08 
    2    3   -0.43089375E-03  0.29778802E-08 
    3    3    0.80451266E-03 -0.45564087E-08 
    4    3   -0.13725977E-03  0.26470855E-08 
    1    4   -0.29850132E-03 -0.58516380E-08 
    2    4   -0.29850174E-03 -0.17670230E-08 
    3    4   -0.29849775E-03 -0.74617945E-09 
    4    4    0.53381045E-03 -0.39350618E-09 

   -2    4   -1
    1    1    0.11770339E-02 -0.23378812E-08 
    2    1   -0.14340196E-03  0.11748655E-09 
    3    1   -0.53218296E-03  0.14058583E-08 
    4    1   -0.14340044E-03 -0.27661951E-08 
    1    2   -0.25802746E-03 -0.36414754E-08 
    2    2    0.63351562E-03  0.21266757E-08 
    3    2   -0.25802618E-03  0.31860661E-09 
    4    2   -0.29849786E-03  0.70604055E-08 
    1    3   -0.53219117E-03 -0.27382869E-08 
    2    3   -0.14338266E-03 -0.21822183E-09 
    3    3    0.11770453E-02 -0.40299145E-09 
    4    3   -0.14339505E-03 -0.13566039E-08 
    1    4   -0.25802910E-03  0.14602501E-09 
    2    4   -0.29850227E-03 -0.41173558E-08 
    3    4   -0.25802231E-03  0.56542449E-08 
    4    4    0.63352035E-03  0.61176760E-09 

   -2    4    0
    1    1    0.80451627E-03  0.20405777E-08 
    2    1   -0.13726841E-03  0.40067179E-10 
    3    1   -0.43090579E-03  0.35557537E-08 
    4    1   -0.43090723E-03  0.39612723E-08 
    1    2   -0.29850008E-03 -0.71766847E-08 
    2    2    0.53380744E-03 -0.47969868E-09 
    3    2   -0.29849864E-03  0.53226349E-08 
    4    2   -0.29849895E-03  0.12299716E-08 
    1    3   -0.43090092E-03  0.13598278E-09 
    2    3   -0.13726731E-03 -0.11295984E-08 
    3    3    0.80451466E-03  0.96685842E-09 
    4    3   -0.43089798E-03  0.45243409E-09 
    1    4   -0.43092040E-03 -0.17351682E-08 
    2    4   -0.13726297E-03  0.83953827E-09 
    3    4   -0.43089965E-03 -0.38844135E-08 
    4    4    0.80451621E-03 -0.25306601E-08 

   -1   -3    1
    1    1   -0.21421765E-03  0.18858185E-08 
    2    1   -0.50236777E-03 -0.11926988E-08 
    3    1    0.27674991E-03  0.39244229E-08 
    4    1    0.27675064E-03 -0.48701576E-08 
    1    2    0.17141274E-03  0.29458153E-08 
    2    2   -0.21421678E-03 -0.35509679E-08 
    3    2    0.42917885E-03 -0.25126117E-09 
    4    2    0.42918501E-03 -0.44814384E-08 
    1    3    0.42918594E-03  0.24048014E-08 
    2    3    0.27674614E-03 -0.45329892E-08 
    3    3   -0.12594587E-02 -0.26642110E-08 
    4    3    0.58080408E-03 -0.49865832E-08 
    1    4    0.42918079E-03  0.43529352E-08 
    2    4    0.27675458E-03 -0.33862249E-08 
    3    4    0.58080698E-03  0.10234989E-09 
    4    4   -0.12594545E-02  0.43329143E-08 

   -1   -3    2
    1    1    0.78961128E-03 -0.39819245E-08 
    2    1   -0.69385002E-04 -0.16542652E-08 
    3    1   -0.95164056E-03  0.83732579E-09 
    4    1   -0.69386062E-04 -0.36562823E-09 
    1    2   -0.49357767E-03  0.33745811E-08 
    2    2   -0.61860826E-03 -0.45662881E-08 
    3    2    0.12706169E-02  0.54537523E-08 
    4    2    0.27674278E-03  0.46493160E-08 
    1    3   -0.13727146E-03 -0.89585093E-08 
    2    3    0.46710613E-03  0.67039129E-09 
    3    3   -0.97199275E-03  0.13707736E-08 
    4    3    0.46711021E-03 -0.41777325E-08 
    1    4   -0.49358118E-03  0.30737456E-08 
    2    4    0.27675022E-03 -0.67364745E-08 
    3    4    0.12706044E-02  0.17274702E-08 
    4    4   -0.61860755E-03  0.71759005E-08 

   -1   -3    3
    1    1   -0.21421380E-03 -0.97381669E-09 
    2    1    0.27674146E-03  0.20141693E-08 
    3    1    0.27674814E-03  0.67552214E-08 
    4    1   -0.50237334E-03 -0.43391071E-08 
    1    2    0.42918285E-03 -0.30685858E-08 
    2    2   -0.12594525E-02 -0.24179603E-08 
    3    2    0.58081113E-03 -0.12012827E-08 
    4    2    0.27673781E-03 -0.78220549E-09 
    1    3    0.42918751E-03 -0.74678122E-08 
    2    3    0.58081468E-03 -0.11007812E-07 
    3    3   -0.12594641E-02  0.40041241E-08 
    4    3    0.27675067E-03  0.10018140E-07 
    1    4    0.17142091E-03  0.13934530E-07 
    2    4    0.42918614E-03 -0.18763017E-08 
    3    4    0.42918197E-03  0.81836014E-09 
    4    4   -0.21421654E-03 -0.61208652E-09 

   -1   -2   -1
    1    1    0.63351292E-03  0.50886538E-08 
    2    1   -0.29849480E-03  0.38083417E-08 
    3    1   -0.25802921E-03 -0.73552926E-10 
    4    1   -0.25802521E-03 -0.38558426E-08 
    1    2   -0.29849536E-03 -0.73558731E-09 
    2    2    0.63351675E-03 -0.17522131E-08 
    3    2   -0.25802880E-03  0.50886784E-08 
    4    2   -0.25802775E-03  0.57561491E-09 
    1    3   -0.14339685E-03 -0.32821873E-08 
    2    3   -0.14339637E-03 -0.11312665E-08 
    3    3    0.11770418E-02  0.15947716E-09 
    4    3   -0.53218971E-03  0.32074593E-08 
    1    4   -0.14339876E-03  0.27595552E-08 
    2    4   -0.14339880E-03 -0.38593844E-09 
    3    4   -0.53218178E-03 -0.86728441E-08 
    4    4    0.11770434E-02 -0.34967283E-08 

   -1   -2    0
    1    1   -0.97632706E-03  0.50237429E-08 
    2    1   -0.49358125E-03 -0.28150319E-08 
    3    1    0.26461168E-02  0.41010566E-08 
    4    1   -0.43089399E-03 -0.38875134E-08 
    1    2   -0.38736477E-03 -0.31134657E-08 
    2    2    0.78161802E-03 -0.49812803E-08 
    3    2   -0.72420524E-03  0.51170870E-08 
    4    2   -0.14339547E-03  0.77725898E-09 
    1    3    0.72612494E-03 -0.47083350E-08 
    2    3    0.42918772E-03 -0.42839818E-08 
    3    3   -0.16459910E-02 -0.39688312E-09 
    4    3   -0.62539891E-03  0.19409431E-08 
    1    4    0.52757921E-03  0.76277066E-08 
    2    4   -0.14219331E-02  0.21628574E-09 
    3    4   -0.12177634E-02 -0.11094801E-08 
    4    4    0.24899779E-02  0.35523803E-09 

   -1   -2    1
    1    1    0.87848608E-03 -0.28307264E-08 
    2    1    0.32659549E-03  0.26748388E-09 
    3    1   -0.33447872E-02  0.77353697E-09 
    4    1    0.12706120E-02  0.24913838E-08 
    1    2   -0.10866961E-02 -0.10288483E-07 
    2    2    0.87847585E-03 -0.21687290E-08 
    3    2    0.29022464E-02  0.27270546E-08 
    4    2   -0.14219234E-02  0.40511929E-08 
    1    3   -0.14219274E-02  0.29616207E-08 
    2    3    0.12706008E-02  0.33342077E-08 
    3    3   -0.13526697E-02 -0.76579633E-09 
    4    3    0.58080423E-03 -0.39320126E-08 
    1    4    0.29022272E-02 -0.34087495E-08 
    2    4   -0.33447776E-02 -0.76121861E-08 
    3    4    0.44385330E-02 -0.30958992E-08 
    4    4   -0.13526794E-02  0.57661108E-08 

   -1   -2    2
    1    1    0.87849399E-03 -0.38094664E-08 
    2    1    0.12706107E-02 -0.30134014E-09 
    3    1   -0.33447779E-02  0.62702385E-08 
    4    1    0.32659237E-03  0.19394732E-08 
    1    2    0.29022306E-02  0.12042387E-07 
    2    2   -0.13526699E-02 -0.28417151E-09 
    3    2    0.44385346E-02 -0.81485777E-08 
    4    2   -0.33447852E-02 -0.12852964E-08 
    1    3   -0.14219311E-02 -0.87559937E-08 
    2    3    0.58080659E-03  0.82516501E-10 
    3    3   -0.13526842E-02 -0.55521957E-08 
    4    3    0.12706181E-02 -0.48566400E-09 
    1    4   -0.10867238E-02 -0.71576399E-08 
    2    4   -0.14219343E-02  0.10310900E-08 
    3    4    0.29022298E-02  0.53330866E-08 
    4    4    0.87848695E-03  0.96453367E-08 

   -1   -2    3
    1    1   -0.97631918E-03 -0.79133089E-08 
    2    1   -0.43090326E-03 -0.54395788E-08 
    3    1    0.26461232E-02  0.10828526E-08 
    4    1   -0.49358293E-03 -0.15344542E-08 
    1    2    0.52755150E-03  0.39784465E-09 
    2    2    0.24899901E-02  0.10215992E-07 
    3    2   -0.12177811E-02 -0.22912006E-08 
    4    2   -0.14219339E-02  0.14164962E-08 
    1    3    0.72612911E-03 -0.21012035E-08 
    2    3   -0.62539445E-03 -0.60229873E-08 
    3    3   -0.16459950E-02 -0.50102090E-08 
    4    3    0.42918559E-03  0.28218799E-08 
    1    4   -0.38736817E-03 -0.10663747E-07 
    2    4   -0.14339893E-03  0.10767790E-07 
    3    4   -0.72419891E-03  0.42361662E-08 
    4    4    0.78161617E-03  0.27038928E-08 

   -1   -2    4
    1    1    0.63351773E-03 -0.42026863E-08 
    2    1   -0.25802161E-03  0.56843192E-08 
    3    1   -0.25803031E-03  0.60610809E-08 
    4    1   -0.29850061E-03 -0.14089468E-08 
    1    2   -0.14340416E-03  0.51965546E-08 
    2    2    0.11770432E-02 -0.34233382E-08 
    3    2   -0.53219274E-03 -0.15461586E-08 
    4    2   -0.14339226E-03  0.31253370E-08 
    1    3   -0.14339138E-03 -0.17021269E-09 
    2    3   -0.53218278E-03 -0.43526619E-08 
    3    3    0.11770386E-02  0.78852332E-08 
    4    3   -0.14339517E-03 -0.59002046E-08 
    1    4   -0.29849987E-03  0.51189228E-08 
    2    4   -0.25802666E-03 -0.35130591E-09 
    3    4   -0.25802173E-03 -0.11417140E-07 
    4    4    0.63351576E-03 -0.25784460E-09 

   -1   -1   -2
    1    1    0.63351611E-03 -0.46792314E-08 
    2    1   -0.25802621E-03  0.30404867E-08 
    3    1   -0.29850212E-03  0.20987872E-08 
    4    1   -0.25802107E-03 -0.74882970E-08 
    1    2   -0.14339056E-03 -0.50443839E-08 
    2    2    0.11770460E-02 -0.67590232E-08 
    3    2   -0.14340085E-03  0.59683387E-09 
    4    2   -0.53219273E-03 -0.18831067E-08 
    1    3   -0.29849469E-03 -0.32682236E-08 
    2    3   -0.25802492E-03 -0.64034684E-08 
    3    3    0.63351478E-03  0.61168914E-08 
    4    3   -0.25802705E-03  0.68762567E-08 
    1    4   -0.14339892E-03  0.58761478E-08 
    2    4   -0.53218307E-03  0.72258589E-08 
    3    4   -0.14339866E-03 -0.27578855E-08 
    4    4    0.11770380E-02  0.53205930E-08 

   -1   -1   -1
    1    1    0.21207592E-02  0.42678370E-08 
    2    1   -0.72420374E-03  0.32272377E-08 
    3    1   -0.72420424E-03  0.30067252E-08 
    4    1   -0.53218466E-03 -0.79120741E-09 
    1    2   -0.72420472E-03 -0.36706423E-08 
    2    2    0.21207579E-02  0.13184146E-09 
    3    2   -0.72420102E-03 -0.49575641E-08 
    4    2   -0.53218983E-03 -0.26963828E-08 
    1    3   -0.72420325E-03 -0.11030296E-08 
    2    3   -0.72419805E-03  0.17928692E-08 
    3    3    0.21207585E-02  0.13143041E-08 
    4    3   -0.53218848E-03  0.49513486E-08 
    1    4   -0.46118802E-03 -0.13898975E-08 
    2    4   -0.46119954E-03  0.17034442E-08 
    3    4   -0.46120105E-03  0.34142994E-08 
    4    4    0.17592554E-02 -0.57118100E-08 

   -1   -1    0
    1    1   -0.94855141E-02  0.19059641E-08 
    2    1    0.29022480E-02  0.33873165E-08 
    3    1    0.30991940E-02 -0.36572638E-08 
    4    1   -0.12177718E-02 -0.78020093E-08 
    1    2   -0.12115117E-02  0.10033020E-08 
    2    2    0.28432711E-02  0.18195919E-08 
    3    2   -0.12115267E-02 -0.24617138E-07 
    4    2   -0.46120352E-03 -0.12505782E-07 
    1    3    0.30991496E-02 -0.42678381E-08 
    2    3    0.29022331E-02  0.65885526E-10 
    3    3   -0.94854994E-02 -0.54068264E-08 
    4    3   -0.12177821E-02  0.21934654E-08 
    1    4    0.13148771E-01  0.28723649E-07 
    2    4   -0.15490043E-01  0.23030831E-07 
    3    4    0.13148759E-01  0.10804759E-07 
    4    4    0.93087087E-02  0.16832703E-08 

   -1   -1    1
    1    1   -0.11643645E-02  0.86813041E-08 
    2    1    0.44385293E-02 -0.17718176E-08 
    3    1   -0.15490025E-01 -0.18017717E-07 
    4    1    0.44385324E-02 -0.12954489E-07 
    1    2    0.21128971E-01  0.17316428E-07 
    2    2   -0.11643390E-02 -0.19418916E-08 
    3    2    0.21128958E-01 -0.17235884E-07 
    4    2   -0.15490052E-01 -0.55630199E-08 
    1    3   -0.15490051E-01  0.18925282E-07 
    2    3    0.44385121E-02  0.53641138E-08 
    3    3   -0.11643550E-02 -0.15834312E-07 
    4    3    0.44385250E-02 -0.52324238E-08 
    1    4    0.21128906E-01  0.99502049E-08 
    2    4   -0.15490024E-01  0.87102752E-08 
    3    4    0.21128943E-01  0.45354636E-08 
    4    4   -0.11643428E-02  0.90966082E-08 

   -1   -1    2
    1    1   -0.94854948E-02 -0.27837256E-08 
    2    1   -0.12177707E-02 -0.47238841E-08 
    3    1    0.30991394E-02 -0.72511430E-08 
    4    1    0.29022305E-02 -0.10073586E-07 
    1    2    0.13148765E-01 -0.11677989E-07 
    2    2    0.93087131E-02  0.11949014E-07 
    3    2    0.13148748E-01 -0.20242390E-07 
    4    2   -0.15490031E-01  0.18139665E-08 
    1    3    0.30991263E-02  0.44195690E-08 
    2    3   -0.12177655E-02  0.12870816E-08 
    3    3   -0.94854983E-02 -0.24816455E-07 
    4    3    0.29022283E-02  0.32434440E-08 
    1    4   -0.12115133E-02 -0.39961813E-08 
    2    4   -0.46118993E-03  0.16414133E-07 
    3    4   -0.12115231E-02  0.14822227E-07 
    4    4    0.28432739E-02  0.15650333E-07 

   -1   -1    3
    1    1    0.21207577E-02 -0.51766987E-09 
    2    1   -0.53219183E-03  0.10007409E-08 
    3    1   -0.72418693E-03  0.18888220E-08 
    4    1   -0.72420346E-03  0.73052208E-08 
    1    2   -0.46118975E-03  0.38887260E-08 
    2    2    0.17592655E-02 -0.10343431E-07 
    3    2   -0.46121987E-03 -0.69456379E-08 
    4    2   -0.46119546E-03 -0.93754635E-08 
    1    3   -0.72421062E-03 -0.12373985E-08 
    2    3   -0.53218563E-03 -0.26948354E-08 
    3    3    0.21207532E-02  0.43631550E-08 
    4    3   -0.72420342E-03 -0.60324570E-08 
    1    4   -0.72420207E-03 -0.38500140E-09 
    2    4   -0.53218129E-03  0.51963184E-09 
    3    4   -0.72420052E-03  0.54866038E-08 
    4    4    0.21207541E-02  0.64974685E-08 

   -1   -1    4
    1    1    0.63351611E-03 -0.46792310E-08 
    2    1   -0.25802591E-03  0.30404873E-08 
    3    1   -0.29850212E-03  0.20987874E-08 
    4    1   -0.25802137E-03 -0.74882968E-08 
    1    2   -0.14339160E-03 -0.50443830E-08 
    2    2    0.11770455E-02 -0.67590240E-08 
    3    2   -0.14340189E-03  0.59683358E-09 
    4    2   -0.53219164E-03 -0.18831077E-08 
    1    3   -0.29849469E-03 -0.32682243E-08 
    2    3   -0.25802462E-03 -0.64034686E-08 
    3    3    0.63351478E-03  0.61168928E-08 
    4    3   -0.25802735E-03  0.68762566E-08 
    1    4   -0.14339788E-03  0.58761502E-08 
    2    4   -0.53218416E-03  0.72258593E-08 
    3    4   -0.14339762E-03 -0.27578858E-08 
    4    4    0.11770385E-02  0.53205920E-08 

   -1    0   -2
    1    1   -0.97632928E-03 -0.41592630E-08 
    2    1    0.26461099E-02  0.49864539E-08 
    3    1   -0.49358346E-03  0.29383508E-08 
    4    1   -0.43090239E-03 -0.49844391E-08 
    1    2    0.72614224E-03 -0.41718491E-08 
    2    2   -0.16459953E-02  0.10104530E-08 
    3    2    0.42917924E-03  0.10415512E-07 
    4    2   -0.62539716E-03 -0.24138833E-08 
    1    3   -0.38737685E-03 -0.29056927E-08 
    2    3   -0.72419373E-03  0.27284724E-08 
    3    3    0.78162212E-03 -0.22416748E-08 
    4    3   -0.14339182E-03  0.72760302E-08 
    1    4    0.52757659E-03 -0.54424523E-08 
    2    4   -0.12177596E-02 -0.22366783E-08 
    3    4   -0.14219375E-02 -0.24811022E-08 
    4    4    0.24899803E-02  0.53907011E-08 

   -1    0   -1
    1    1   -0.94855137E-02 -0.12971531E-07 
    2    1    0.30991645E-02  0.79735550E-08 
    3    1    0.29022362E-02  0.93994457E-08 
    4    1   -0.12177661E-02 -0.39833137E-08 
    1    2    0.30991776E-02  0.87799555E-08 
    2    2   -0.94855104E-02 -0.12210941E-07 
    3    2    0.29022503E-02 -0.13696760E-08 
    4    2   -0.12177814E-02  0.46466127E-09 
    1    3   -0.12115243E-02  0.13939991E-07 
    2    3   -0.12115073E-02  0.12946737E-07 
    3    3    0.28432719E-02  0.56570885E-08 
    4    3   -0.46120049E-03 -0.84354671E-08 
    1    4    0.13148731E-01 -0.28667396E-07 
    2    4    0.13148759E-01 -0.15627756E-07 
    3    4   -0.15490048E-01 -0.71338478E-08 
    4    4    0.93087185E-02  0.19526031E-07 

   -1    0    0
    1    1    0.33508778E+00  0.62136303E-08 
    2    1    0.13148777E-01 -0.68361344E-08 
    3    1    0.13148748E-01 -0.38233135E-08 
    4    1   -0.12457791E+00  0.51547337E-08 
    1    2   -0.91547195E-01 -0.23336379E-07 
    2    2   -0.47931121E-01 -0.23703943E-07 
    3    2    0.21128932E-01  0.17213074E-07 
    4    2    0.13148776E-01  0.13703604E-07 
    1    3   -0.91547290E-01  0.14194621E-07 
    2    3    0.21128947E-01  0.42936226E-08 
    3    3   -0.47931133E-01  0.31602523E-08 
    4    3    0.13148760E-01 -0.33934554E-08 
    1    4   -0.12379535E+01 -0.16406510E-07 
    2    4   -0.91547255E-01 -0.22800978E-07 
    3    4   -0.91547188E-01  0.22595388E-07 
    4    4    0.33508776E+00  0.14332653E-07 

   -1    0    1
    1    1    0.33508778E+00  0.23387683E-07 
    2    1   -0.12457792E+00  0.68348465E-08 
    3    1    0.13148763E-01 -0.66091652E-09 
    4    1    0.13148767E-01  0.99980003E-08 
    1    2   -0.12379537E+01 -0.45833639E-08 
    2    2    0.33508778E+00  0.10236749E-08 
    3    2   -0.91547235E-01 -0.82123977E-08 
    4    2   -0.91547204E-01  0.11542253E-07 
    1    3   -0.91547230E-01 -0.11436838E-08 
    2    3    0.13148770E-01 -0.45169556E-08 
    3    3   -0.47931131E-01 -0.31067933E-07 
    4    3    0.21128969E-01  0.17740558E-07 
    1    4   -0.91547237E-01  0.18680827E-08 
    2    4    0.13148725E-01 -0.13484194E-07 
    3    4    0.21128956E-01 -0.27710211E-07 
    4    4   -0.47931130E-01  0.66587238E-08 

   -1    0    2
    1    1   -0.94855020E-02  0.82558995E-08 
    2    1   -0.12177813E-02  0.63860435E-08 
    3    1    0.29022327E-02 -0.55983939E-08 
    4    1    0.30991314E-02 -0.63169974E-08 
    1    2    0.13148789E-01  0.16380697E-07 
    2    2    0.93087135E-02 -0.18327543E-07 
    3    2   -0.15490031E-01  0.10798097E-07 
    4    2    0.13148778E-01  0.32675952E-07 
    1    3   -0.12115202E-02 -0.18661667E-07 
    2    3   -0.46118681E-03 -0.24655371E-08 
    3    3    0.28432709E-02 -0.93665698E-09 
    4    3   -0.12115199E-02 -0.92638156E-08 
    1    4    0.30991407E-02 -0.79307339E-08 
    2    4   -0.12177649E-02 -0.39776315E-08 
    3    4    0.29022384E-02 -0.96865375E-10 
    4    4   -0.94855027E-02  0.11012116E-07 

   -1    0    3
    1    1   -0.97632949E-03 -0.53884767E-08 
    2    1   -0.43090567E-03  0.11579282E-07 
    3    1   -0.49358059E-03 -0.98821936E-09 
    4    1    0.26461155E-02 -0.51553312E-08 
    1    2    0.52759392E-03  0.38316063E-08 
    2    2    0.24899790E-02 -0.82379211E-08 
    3    2   -0.14219213E-02  0.89928941E-08 
    4    2   -0.12177742E-02  0.38083815E-08 
    1    3   -0.38737925E-03 -0.20950508E-08 
    2    3   -0.14339411E-03 -0.28733153E-08 
    3    3    0.78162013E-03  0.10292415E-07 
    4    3   -0.72419943E-03 -0.39008628E-08 
    1    4    0.72612607E-03  0.27672326E-08 
    2    4   -0.62538944E-03 -0.18512522E-08 
    3    4    0.42918147E-03 -0.92357765E-08 
    4    4   -0.16459915E-02  0.33335057E-08 

   -1    1   -3
    1    1   -0.21421767E-03 -0.13508147E-08 
    2    1    0.27674577E-03  0.47073578E-08 
    3    1   -0.50236771E-03  0.59296969E-08 
    4    1    0.27674882E-03 -0.66819392E-08 
    1    2    0.42918822E-03 -0.38305839E-08 
    2    2   -0.12594571E-02  0.67595132E-08 
    3    2    0.27674664E-03 -0.28518352E-08 
    4    2    0.58080877E-03  0.16061387E-08 
    1    3    0.17141171E-03  0.71705414E-08 
    2    3    0.42918252E-03 -0.13181335E-07 
    3    3   -0.21421657E-03 -0.12109152E-08 
    4    3    0.42918937E-03  0.26305929E-08 
    1    4    0.42918382E-03  0.13250351E-08 
    2    4    0.58080581E-03 -0.28995141E-08 
    3    4    0.27673443E-03  0.69004013E-08 
    4    4   -0.12594563E-02 -0.41973491E-08 

   -1    1   -2
    1    1    0.87847880E-03  0.87189437E-08 
    2    1   -0.33447858E-02  0.30445357E-09 
    3    1    0.32659293E-03 -0.16058616E-09 
    4    1    0.12706054E-02 -0.12132581E-08 
    1    2   -0.14219266E-02  0.66014816E-08 
    2    2   -0.13526740E-02 -0.35265776E-08 
    3    2    0.12706088E-02 -0.90762688E-08 
    4    2    0.58081463E-03  0.45048851E-08 
    1    3   -0.10866986E-02 -0.36012481E-08 
    2    3    0.29022306E-02 -0.17502721E-07 
    3    3    0.87848120E-03 -0.12234632E-08 
    4    3   -0.14219217E-02  0.10544116E-07 
    1    4    0.29022413E-02  0.61482205E-09 
    2    4    0.44385205E-02 -0.43043217E-08 
    3    4   -0.33447866E-02  0.78326398E-08 
    4    4   -0.13526732E-02 -0.39691608E-08 

   -1    1   -1
    1    1   -0.11643394E-02 -0.10818166E-07 
    2    1   -0.15490079E-01 -0.25663767E-08 
    3    1    0.44385151E-02 -0.68354223E-08 
    4    1    0.44385267E-02 -0.29463805E-08 
    1    2   -0.15490025E-01 -0.79659036E-08 
    2    2   -0.11643467E-02 -0.22860390E-07 
    3    2    0.44385387E-02 -0.12143549E-07 
    4    2    0.44385252E-02 -0.84669154E-09 
    1    3    0.21128927E-01  0.30217577E-07 
    2    3    0.21128944E-01 -0.14089167E-07 
    3    3   -0.11643634E-02  0.27306299E-07 
    4    3   -0.15490036E-01  0.35285866E-07 
    1    4    0.21128938E-01 -0.15183749E-08 
    2    4    0.21128979E-01 -0.27786038E-07 
    3    4   -0.15490026E-01  0.12022372E-07 
    4    4   -0.11643519E-02  0.63752546E-08 

   -1    1    0
    1    1    0.33508777E+00 -0.24032291E-07 
    2    1    0.13148767E-01 -0.20437024E-08 
    3    1   -0.12457792E+00  0.10344737E-07 
    4    1    0.13148762E-01 -0.18529329E-07 
    1    2   -0.91547233E-01  0.85962898E-08 
    2    2   -0.47931125E-01  0.22479005E-08 
    3    2    0.13148758E-01  0.18530915E-07 
    4    2    0.21128939E-01  0.60885035E-09 
    1    3   -0.12379536E+01 -0.14794312E-07 
    2    3   -0.91547217E-01 -0.18331518E-08 
    3    3    0.33508778E+00 -0.15901239E-07 
    4    3   -0.91547271E-01 -0.10371828E-07 
    1    4   -0.91547228E-01 -0.16798566E-07 
    2    4    0.21128974E-01  0.19844467E-07 
    3    4    0.13148767E-01  0.10319882E-07 
    4    4   -0.47931125E-01  0.37685508E-07 

   -1    1    1
    1    1   -0.11643531E-02  0.53129667E-08 
    2    1    0.44385167E-02  0.44484223E-09 
    3    1    0.44385275E-02  0.66197973E-08 
    4    1   -0.15490027E-01 -0.68990589E-08 
    1    2    0.21128976E-01  0.18778906E-07 
    2    2   -0.11643670E-02  0.13026000E-08 
    3    2   -0.15490042E-01 -0.16435776E-07 
    4    2    0.21128923E-01  0.30119000E-07 
    1    3    0.21128956E-01  0.14641032E-07 
    2    3   -0.15490040E-01 -0.19479674E-07 
    3    3   -0.11643434E-02 -0.23524493E-07 
    4    3    0.21128955E-01 -0.21199535E-08 
    1    4   -0.15490055E-01 -0.60965123E-08 
    2    4    0.44385276E-02  0.88884433E-08 
    3    4    0.44385160E-02  0.66665138E-08 
    4    4   -0.11643379E-02  0.16911965E-07 

   -1    1    2
    1    1    0.87848181E-03  0.40722952E-08 
    2    1    0.12706021E-02 -0.89042830E-09 
    3    1    0.32659177E-03  0.14050052E-08 
    4    1   -0.33447728E-02  0.10991147E-07 
    1    2    0.29022357E-02  0.18661695E-08 
    2    2   -0.13526742E-02 -0.61200634E-08 
    3    2   -0.33447616E-02 -0.43547169E-08 
    4    2    0.44385175E-02  0.18291665E-08 
    1    3   -0.10866909E-02  0.11323953E-08 
    2    3   -0.14219401E-02 -0.92249560E-08 
    3    3    0.87847998E-03  0.47481192E-08 
    4    3    0.29022438E-02  0.21315931E-08 
    1    4   -0.14219359E-02 -0.68988491E-08 
    2    4    0.58080033E-03 -0.36634428E-08 
    3    4    0.12706094E-02  0.53886302E-08 
[...]
    4    3   -0.19006813E-03  0.31721225E-07  0.23741368E-03  0.24251080E-07 -0.19006321E-03 -0.77494125E-08
    1    4   -0.89796371E-03  0.27560749E-07  0.13140198E-04 -0.22472905E-07  0.61493972E-03 -0.99004697E-08
    2    4    0.61494758E-03  0.77422731E-08  0.13122549E-04 -0.11750536E-08 -0.89794040E-03  0.97369640E-08
    3    4   -0.16817930E-03 -0.81694502E-08 -0.33216828E-03 -0.43328248E-08 -0.16814279E-03 -0.49353220E-07
    4    4    0.40094142E-07 -0.53466097E-08  0.34581764E-07  0.12494597E-07  0.40094143E-07 -0.53466075E-08

    3    1   -2
    1    1    0.15299064E-07 -0.41354019E-07 -0.21160292E-07  0.10260807E-07  0.15324464E-07 -0.15202460E-07
    2    1    0.31064389E-03  0.11480480E-07  0.14379892E-02  0.21581529E-07  0.25495863E-03 -0.79293382E-08
    3    1    0.59102861E-03  0.11660378E-07 -0.59105879E-03  0.15435854E-07 -0.84228408E-03  0.65739437E-08
    4    1   -0.14379684E-02 -0.14768019E-08 -0.31060629E-03 -0.93151416E-08  0.25496128E-03  0.17019160E-07
    1    2   -0.20510866E-03  0.10161648E-07 -0.27087840E-03 -0.18276263E-07 -0.55962487E-04 -0.54794086E-07
    2    2    0.83535920E-08 -0.28580105E-07  0.78887023E-08 -0.10234122E-07 -0.80346846E-09 -0.43333868E-08
    3    2   -0.29338216E-03 -0.23507446E-07  0.40446680E-03  0.57669043E-07  0.30220177E-03  0.16601062E-07
    4    2    0.95606713E-03  0.58067252E-08 -0.34849062E-03 -0.31668779E-07 -0.56880451E-03 -0.55901661E-08
    1    3   -0.44804387E-04  0.34630240E-07  0.44810311E-04  0.56823398E-08 -0.63701026E-04  0.49102588E-07
    2    3   -0.23594518E-03  0.69629890E-08 -0.72043739E-03 -0.32196346E-07 -0.10469615E-03 -0.31061142E-07
    3    3    0.34493851E-07 -0.16362183E-07 -0.29133302E-07  0.65324497E-08  0.25442049E-07 -0.85338482E-08
    4    3    0.72042741E-03 -0.42053943E-07  0.23592870E-03  0.22318528E-07 -0.10471854E-03 -0.41826475E-07
    1    4    0.27084536E-03 -0.18635778E-07  0.20513882E-03  0.36443496E-08 -0.55941128E-04  0.64191029E-08
    2    4    0.34846331E-03  0.92618756E-08 -0.95616282E-03  0.93395576E-08 -0.56885217E-03  0.64575847E-08
    3    4   -0.40451755E-03 -0.23792221E-07  0.29343622E-03 -0.33041109E-07  0.30227570E-03 -0.68778304E-07
    4    4    0.28170077E-07  0.70378267E-08  0.82010926E-09 -0.19112948E-07  0.13032478E-07  0.10795164E-07

    3    1   -1
    1    1    0.21480810E-07  0.11165610E-07 -0.14477131E-07  0.15448214E-07  0.14477136E-07 -0.15448214E-07
    2    1    0.40155030E-03 -0.31222477E-07  0.17341951E-02 -0.44666676E-07  0.14562809E-02  0.32039334E-08
    3    1   -0.35263976E-03  0.63286749E-08 -0.92331078E-03  0.35102724E-08 -0.58957875E-03  0.19690735E-07
    4    1   -0.22506171E-03  0.34117466E-07  0.71910476E-04 -0.33794544E-07 -0.23356492E-03  0.57251546E-08
    1    2   -0.13166324E-04 -0.18483339E-07  0.89794275E-03  0.17014198E-08  0.61497466E-03 -0.25526856E-07
    2    2    0.18508507E-07  0.44455508E-08  0.73825317E-08  0.58435464E-08 -0.73825293E-08 -0.58435466E-08
    3    2    0.33216599E-03  0.30848787E-07  0.16818411E-03  0.84260664E-08 -0.16809537E-03  0.19942533E-07
    4    2   -0.13188966E-04 -0.24901892E-07 -0.61499341E-03 -0.24093128E-07 -0.89797015E-03  0.17590348E-07
    1    3    0.15105275E-03  0.25282906E-07 -0.18769058E-02 -0.38619367E-07 -0.13135183E-02  0.36073835E-07
    2    3   -0.23737274E-03 -0.16956820E-07  0.19007216E-03 -0.14305827E-07 -0.19002862E-03  0.58365427E-08
    3    3    0.67026093E-08 -0.41418092E-08 -0.11688028E-07  0.10545687E-07  0.11688032E-07 -0.10545686E-07
    4    3    0.15110257E-03 -0.67620552E-09  0.13134790E-02  0.79987753E-07  0.18769217E-02  0.10748323E-07
    1    4   -0.22503447E-03 -0.14250657E-07  0.23349132E-03  0.15040372E-07 -0.71930251E-04 -0.78133495E-08
    2    4    0.40153392E-03  0.12733541E-07 -0.14562988E-02  0.33406674E-07 -0.17342227E-02  0.99167472E-09
    3    4   -0.35268415E-03  0.21901686E-07  0.58953353E-03 -0.34401478E-07  0.92327849E-03  0.43353342E-07
    4    4    0.51090862E-08 -0.76919837E-09  0.21449141E-07 -0.37660115E-08 -0.21449138E-07  0.37660075E-08

    3    2   -3
    1    1   -0.29300924E-08 -0.74542705E-09  0.56118306E-09 -0.16129547E-07 -0.29300939E-08 -0.74542605E-09
    2    1    0.22531913E-03  0.63082092E-07  0.14964539E-03 -0.41472304E-07  0.21556492E-03 -0.26634260E-07
    3    1    0.28738190E-03  0.25371656E-07  0.26147521E-03 -0.14631436E-07 -0.53690290E-03 -0.31487791E-07
    4    1   -0.32516563E-03  0.16426801E-07 -0.29703903E-03  0.57267195E-08  0.40587531E-03  0.98430236E-08
    1    2    0.21551427E-03  0.42947744E-07  0.14959886E-03  0.22844416E-07  0.22537605E-03 -0.26297447E-07
    2    2    0.13127213E-08 -0.33798858E-08 -0.23915304E-08  0.13015223E-08  0.13127222E-08 -0.33798868E-08
    3    2   -0.53686624E-03  0.11956188E-07  0.26143356E-03  0.68577729E-08  0.28743240E-03 -0.51781663E-07
    4    2    0.40585999E-03 -0.13692538E-07 -0.29701316E-03 -0.29083509E-07 -0.32521662E-03  0.16908759E-07
    1    3    0.42828700E-03  0.13375548E-07  0.91816025E-04 -0.95051455E-08 -0.30278404E-03  0.64946565E-09
    2    3   -0.30277724E-03 -0.32409317E-07  0.91742026E-04  0.35918838E-07  0.42830919E-03 -0.18382513E-07
    3    3    0.55018807E-08  0.19185416E-08 -0.45715321E-08 -0.31353370E-08  0.55018819E-08  0.19185425E-08
    4    3   -0.19534841E-03  0.14868105E-08  0.22873952E-03  0.27371383E-07 -0.19531024E-03 -0.45667215E-07
    1    4   -0.53572267E-03  0.98179323E-08 -0.26434829E-03 -0.59067645E-09  0.28853100E-03  0.35268309E-07
    2    4    0.28854541E-03 -0.20464573E-07 -0.26440465E-03 -0.26323376E-07 -0.53571400E-03  0.31411364E-07
    3    4   -0.73677946E-05 -0.53090149E-07 -0.38639202E-05  0.57396581E-07 -0.73514857E-05 -0.48979221E-07
    4    4    0.32121887E-08 -0.83651895E-08  0.12314509E-08 -0.71275687E-08  0.32121876E-08 -0.83651890E-08

    3    2   -2
    1    1    0.33371082E-08 -0.31236264E-08 -0.51345399E-08  0.74310351E-08  0.51345404E-08 -0.74310357E-08
    2    1    0.29696924E-03 -0.14400266E-07  0.32519592E-03  0.21525288E-07  0.40589991E-03  0.23128132E-07
    3    1   -0.26139213E-03  0.15419917E-07 -0.28744246E-03 -0.24989318E-07 -0.53690365E-03  0.58469193E-07
    4    1   -0.14959785E-03 -0.70751121E-07 -0.22537103E-03 -0.82179277E-08  0.21553880E-03 -0.36766666E-07
    1    2    0.26439838E-03 -0.43230496E-07  0.53570498E-03  0.53153117E-07  0.28859731E-03  0.27355449E-07
    2    2    0.12566957E-08  0.98940607E-08  0.17984407E-09  0.76654923E-08 -0.17984693E-09 -0.76654918E-08
    3    2    0.38232483E-05 -0.11104028E-08  0.74238732E-05 -0.56037151E-07 -0.73508401E-05  0.31276890E-07
    4    2    0.26433290E-03  0.15395230E-07 -0.28861152E-03 -0.67444885E-07 -0.53576187E-03  0.10873340E-07
    1    3   -0.91780513E-04  0.60330977E-08 -0.42828989E-03 -0.35425776E-08 -0.30279882E-03  0.38546345E-07
    2    3   -0.22870331E-03 -0.13885023E-07  0.19533407E-03 -0.33085493E-07 -0.19531836E-03  0.42398073E-07
    3    3    0.10055424E-08 -0.13125577E-07 -0.15077052E-08  0.47529986E-08  0.15077066E-08 -0.47529996E-08
    4    3   -0.91791702E-04 -0.31844175E-07  0.30278699E-03 -0.13998568E-07  0.42834970E-03 -0.99021361E-07
    1    4   -0.14961212E-03 -0.11958785E-07 -0.21558293E-03 -0.42132370E-07  0.22531784E-03 -0.40680501E-07
    2    4    0.29695233E-03 -0.22022052E-07 -0.40591264E-03 -0.44716747E-07 -0.32519086E-03  0.20699244E-07
    3    4   -0.26141146E-03 -0.48995348E-07  0.53685994E-03  0.34358561E-07  0.28745766E-03 -0.85391166E-07
    4    4    0.10069189E-07  0.43854999E-08  0.67525384E-09  0.31899361E-09 -0.67525561E-09 -0.31898901E-09

    3    3   -3
    1    1    0.16046192E-16 -0.14775004E-14 -0.15178830E-17 -0.86891322E-15 -0.65052130E-18 -0.11457394E-14
    2    1    0.62117881E-05 -0.59779123E-07 -0.13757836E-07  0.16385912E-07 -0.62357409E-05  0.35113633E-07
    3    1    0.62553214E-05 -0.16659975E-07 -0.62293293E-05 -0.42670856E-07 -0.61402077E-08  0.15691500E-08
    4    1   -0.27029592E-07 -0.82807556E-08 -0.62252222E-05  0.78170218E-07 -0.62051106E-05  0.87994937E-07
    1    2   -0.62116106E-05 -0.59779124E-07  0.13757837E-07  0.16385916E-07  0.62356077E-05  0.35113628E-07
    2    2    0.15868383E-14  0.14434520E-15  0.15911751E-14  0.15615375E-14  0.15790320E-14  0.17176078E-14
    3    2   -0.76952561E-08 -0.16134078E-07 -0.61950640E-05 -0.53140790E-07  0.62452489E-05  0.45201450E-07
    4    2   -0.62302210E-05 -0.12880664E-07 -0.62642853E-05 -0.70813688E-07 -0.28632414E-07  0.17765798E-07
    1    3   -0.62555417E-05 -0.16659976E-07  0.62291090E-05 -0.42670857E-07  0.64692517E-08  0.15691529E-08
    2    3    0.76952521E-08 -0.16134079E-07  0.61952414E-05 -0.53140787E-07 -0.62453820E-05  0.45201449E-07
    3    3    0.26020852E-16  0.24849674E-15 -0.14419889E-16 -0.12424269E-14  0.19190378E-16  0.88142414E-15
    4    3   -0.61980499E-05 -0.19043311E-07  0.22751570E-07  0.56548959E-07 -0.62028751E-05 -0.73257712E-07
    1    4    0.27029589E-07 -0.82807562E-08  0.62254464E-05  0.78170214E-07  0.62049385E-05  0.87994936E-07
    2    4    0.62300397E-05 -0.12880665E-07  0.62641040E-05 -0.70813689E-07  0.28961455E-07  0.17765796E-07
    3    4    0.61982740E-05 -0.19043310E-07 -0.22751565E-07  0.56548961E-07  0.62027030E-05 -0.73257710E-07
    4    4   -0.12011876E-14 -0.80140975E-15 -0.12027055E-14 -0.17034810E-14 -0.12189685E-14  0.11493809E-15

    4   -2   -2
    1    1    0.23104293E-07 -0.28029420E-07 -0.63663712E-08 -0.53590541E-07  0.11253173E-07 -0.48301033E-07
    2    1    0.18463535E-02 -0.22422130E-07 -0.20927041E-02 -0.13131764E-07  0.80638311E-03  0.18535322E-07
    3    1    0.18463246E-02 -0.24876027E-08  0.80651654E-03  0.49971486E-08 -0.20926406E-02  0.10404847E-07
    4    1   -0.33964261E-03  0.32249349E-07  0.44251005E-04  0.60156938E-07  0.44283601E-04  0.35894724E-07
    1    2    0.80648116E-03 -0.24336848E-07 -0.20926793E-02  0.21409803E-07  0.18463396E-02  0.99961225E-08
    2    2   -0.41578763E-07  0.40578487E-07 -0.36023188E-07  0.25412431E-07  0.64860023E-08  0.31433683E-07
    3    2   -0.20926748E-02 -0.17932315E-07  0.80646174E-03 -0.74067339E-07  0.18463287E-02  0.39197809E-07
    4    2    0.44269480E-04 -0.19153804E-07  0.44238531E-04  0.26223896E-07 -0.33957180E-03 -0.33365056E-07
    1    3    0.80642409E-03  0.26799376E-07  0.18463623E-02 -0.12603150E-07 -0.20926725E-02  0.86048169E-09
    2    3   -0.20926652E-02 -0.11832468E-07  0.18463103E-02 -0.39603312E-09  0.80647858E-03  0.66018016E-08
    3    3    0.74949930E-08  0.20765981E-07 -0.16134324E-07  0.79448622E-08  0.16928672E-07 -0.11204752E-07
    4    3    0.44292120E-04 -0.19607719E-07 -0.33960998E-03 -0.39203000E-07  0.44240162E-04  0.22924611E-07
    1    4    0.14865792E-03 -0.20026149E-07 -0.29586838E-03  0.56880278E-07 -0.29587640E-03  0.76163879E-07
    2    4   -0.29583602E-03 -0.49622909E-07 -0.29577536E-03 -0.23416825E-07  0.14873684E-03  0.10233037E-08
    3    4   -0.29584711E-03  0.23374867E-07  0.14861415E-03  0.18244640E-07 -0.29587171E-03 -0.30133682E-07
    4    4   -0.32613309E-07  0.11204330E-07 -0.16098736E-07 -0.23660007E-07 -0.95816446E-08 -0.27981894E-07

    4   -2   -1
    1    1    0.17026577E-07  0.32788822E-07 -0.20946631E-07  0.34238458E-07  0.47709132E-07  0.56223454E-07
    2    1    0.59984483E-03  0.31534471E-07 -0.82018489E-04 -0.18725911E-07 -0.31457493E-04  0.12391208E-07
    3    1    0.13124655E-03 -0.11895931E-08 -0.13120768E-03 -0.69870025E-08 -0.17143139E-03 -0.67058965E-07
    4    1    0.81990512E-04 -0.63627869E-07 -0.59984687E-03  0.21268777E-07 -0.31461940E-04 -0.12834415E-08
    1    2   -0.15307167E-04  0.29761434E-07 -0.22533476E-03  0.87643697E-08 -0.93579674E-04 -0.29316087E-07
    2    2   -0.47978357E-07  0.49760125E-07 -0.35330833E-07  0.25985535E-07 -0.53040254E-08  0.16944203E-07
    3    2   -0.22537187E-03 -0.45559164E-07 -0.15345087E-04 -0.17631256E-07 -0.93497998E-04  0.87450347E-08
    4    2    0.26989643E-03 -0.22159266E-07  0.26988601E-03  0.10476455E-09  0.64610877E-04 -0.28759475E-07
    1    3   -0.13124618E-03 -0.13314429E-07  0.13123467E-03  0.13915703E-07 -0.17138187E-03  0.18126406E-07
    2    3   -0.82033516E-04 -0.12609667E-07  0.59983300E-03  0.57852708E-07 -0.31442290E-04 -0.20322695E-07
    3    3    0.63463161E-07 -0.83082610E-08  0.50030904E-08 -0.27721749E-07  0.21199964E-07 -0.12477273E-07
    4    3   -0.59982950E-03 -0.84882240E-08  0.81991956E-04 -0.13203297E-07 -0.31468198E-04  0.19515544E-07
    1    4    0.22536891E-03 -0.16447373E-07  0.15302916E-04 -0.44107227E-07 -0.93550196E-04 -0.12310761E-07
    2    4   -0.26983522E-03 -0.40560135E-07 -0.26983563E-03 -0.52668623E-07  0.64598076E-04 -0.10825701E-07
    3    4    0.15293579E-04  0.25764604E-07  0.22534534E-03  0.62407535E-07 -0.93586723E-04  0.42704871E-07
    4    4   -0.20612332E-07  0.20916716E-07 -0.30174603E-07  0.62083566E-07  0.13986159E-07  0.27782257E-07

    4   -2    0
    1    1   -0.99428653E-09 -0.28641254E-07 -0.37942253E-08 -0.19918067E-07  0.99884579E-08  0.26665835E-07
    2    1   -0.44268051E-04  0.28298714E-07  0.33964628E-03 -0.25032976E-08  0.44263233E-04 -0.23420643E-07
    3    1   -0.80650168E-03 -0.31837247E-07 -0.18463041E-02  0.40376679E-07 -0.20926548E-02  0.68415556E-07
    4    1    0.20926704E-02  0.40051804E-08 -0.18463222E-02 -0.30408473E-07  0.80647338E-03 -0.37174522E-07
    1    2    0.29582972E-03  0.22317199E-07 -0.14858673E-03  0.22593382E-07 -0.29589029E-03 -0.17184692E-08
    2    2   -0.42648473E-07  0.10958213E-07 -0.45787252E-07  0.18668528E-07  0.34446491E-07  0.59931542E-08
    3    2   -0.14860521E-03 -0.87863613E-08  0.29583682E-03 -0.56511910E-07 -0.29588359E-03 -0.28175960E-07
    4    2    0.29586888E-03 -0.41913939E-07  0.29585102E-03  0.20206564E-07  0.14866617E-03  0.98415552E-08
    1    3   -0.18463137E-02 -0.34684729E-08 -0.80648572E-03  0.27183159E-07 -0.20925916E-02 -0.17890617E-08
    2    3    0.33962938E-03 -0.53747613E-08 -0.44255180E-04  0.27250975E-07  0.44239157E-04  0.14058978E-07
    3    3    0.18087258E-07 -0.12766259E-08 -0.26094434E-07  0.59304357E-08  0.13681932E-07 -0.12022831E-07
    4    3   -0.18463432E-02  0.26944526E-07  0.20926903E-02 -0.45833154E-07  0.80644087E-03  0.20070645E-07
    1    4    0.20926356E-02  0.21729576E-08 -0.80642743E-03 -0.25825865E-07  0.18463300E-02 -0.77372487E-08
    2    4   -0.44224600E-04 -0.53363880E-07 -0.44249813E-04 -0.89351633E-08 -0.33965430E-03  0.39657288E-07
    3    4   -0.80646823E-03  0.60539490E-07  0.20926703E-02  0.10293953E-07  0.18463302E-02 -0.31136726E-07
    4    4   -0.26899695E-07  0.26841066E-07 -0.21815331E-07  0.27809912E-07  0.41259041E-07 -0.37279353E-07

    4   -1   -2
    1    1   -0.59165002E-07 -0.22596945E-07 -0.64294752E-08  0.41808413E-07 -0.27538102E-07  0.25754529E-08
    2    1    0.13123175E-03  0.44438448E-07 -0.17136088E-03  0.16299152E-07 -0.13117984E-03  0.15766244E-07
    3    1    0.59983453E-03  0.14562192E-07 -0.31456060E-04 -0.67634743E-07 -0.82025557E-04 -0.93450954E-08
    4    1    0.82035080E-04 -0.35180942E-08 -0.31456464E-04 -0.20476672E-07 -0.59985431E-03 -0.21622589E-07
    1    2   -0.13120412E-03  0.21292943E-07 -0.17138068E-03 -0.66666118E-09  0.13120860E-03 -0.12476203E-07
    2    2   -0.23003561E-07 -0.17417399E-08 -0.19674973E-08 -0.21908953E-07  0.67641871E-09  0.24185959E-07
    3    2   -0.82043097E-04 -0.41948739E-07 -0.31471129E-04 -0.40935226E-07  0.59988466E-03 -0.19021304E-07
    4    2   -0.59986056E-03  0.38161755E-07 -0.31473994E-04  0.68406307E-07  0.82048288E-04 -0.14549917E-07
    1    3   -0.15346753E-04  0.62022365E-07 -0.93553160E-04 -0.56902427E-07 -0.22536768E-03 -0.40858244E-08
    2    3   -0.22537988E-03 -0.39637894E-08 -0.93561935E-04  0.50628377E-07 -0.15318313E-04 -0.32239670E-07
    3    3    0.82207078E-08 -0.79480681E-08  0.43680355E-08  0.10205008E-07  0.91295798E-08 -0.41513854E-10
    4    3    0.26990905E-03 -0.32254568E-07  0.64617103E-04 -0.31800793E-07  0.26989834E-03  0.21361412E-07
    1    4    0.22537677E-03  0.10231899E-08 -0.93543145E-04 -0.93628960E-08  0.15374615E-04 -0.40925851E-07
    2    4    0.15333058E-04  0.10080731E-08 -0.93564741E-04 -0.23205267E-07  0.22535178E-03 -0.12726928E-07
    3    4   -0.26987655E-03  0.31691893E-07  0.64623113E-04  0.65866328E-07 -0.26987103E-03  0.37270721E-08
    4    4   -0.21992865E-07 -0.10997071E-08 -0.24908246E-07 -0.35462423E-08 -0.31967074E-07  0.23895402E-07

    4   -1   -1
    1    1   -0.34340850E-07  0.39564318E-07 -0.25598094E-09  0.38026624E-08 -0.31402543E-08 -0.21262093E-07
    2    1    0.31500649E-04  0.19574817E-08 -0.82019222E-04  0.44144542E-08 -0.59990326E-03 -0.17792324E-07
    3    1    0.31494402E-04 -0.83864713E-08 -0.59989420E-03  0.22075716E-07 -0.81996331E-04  0.40726233E-07
    4    1    0.17136793E-03 -0.24864336E-07 -0.13118858E-03  0.14491906E-07 -0.13120584E-03  0.21948628E-07
    1    2    0.93592552E-04 -0.32037545E-07 -0.22534960E-03 -0.24230763E-07  0.15306857E-04  0.36922074E-07
    2    2   -0.38575749E-07 -0.28813766E-08 -0.32666715E-07 -0.47958915E-08  0.50698514E-07  0.29320267E-08
    3    2   -0.64604630E-04 -0.25142071E-07  0.26987821E-03 -0.24271636E-07 -0.26993231E-03 -0.20520067E-07
    4    2    0.93544224E-04  0.63525977E-07 -0.15341376E-04  0.53787560E-07  0.22535548E-03 -0.25770462E-07
    1    3    0.93553927E-04 -0.18272350E-07  0.15312323E-04  0.18216934E-07 -0.22536588E-03 -0.25995782E-07
    2    3   -0.64613939E-04  0.26844679E-07 -0.26986924E-03  0.37302145E-08  0.26987344E-03 -0.12534939E-08
    3    3    0.34214206E-07 -0.61475173E-08 -0.35269004E-07  0.13967952E-07  0.51368720E-07 -0.27827310E-07
    4    3    0.93581987E-04  0.14148589E-07  0.22534364E-03 -0.34982084E-07 -0.15358145E-04  0.38984648E-07
    1    4    0.17138147E-03  0.23865684E-07  0.13120902E-03  0.39290123E-07  0.13124311E-03  0.20250104E-07
    2    4    0.31477650E-04 -0.25142466E-07  0.59985848E-03  0.36304017E-08  0.82041541E-04  0.23477328E-07
    3    4    0.31435301E-04  0.63759182E-07  0.82052910E-04 -0.83817230E-08  0.59981203E-03 -0.23776918E-07
    4    4    0.14425414E-07 -0.39106302E-07 -0.22552721E-07  0.47774167E-08  0.58838103E-08 -0.10549707E-07

    4    0   -2
    1    1    0.36338163E-07 -0.50525602E-07 -0.20957079E-07  0.38404359E-07  0.20389864E-07 -0.33866131E-07
    2    1   -0.80643719E-03 -0.11466709E-07 -0.20926896E-02  0.79778733E-08 -0.18463743E-02 -0.48429807E-07
    3    1   -0.44265435E-04 -0.45374477E-08  0.44244131E-04 -0.19687240E-07  0.33960300E-03  0.39647978E-07
    4    1    0.20926720E-02  0.45609430E-07  0.80648397E-03  0.21394274E-08 -0.18463533E-02  0.31510928E-07
    1    2   -0.18462518E-02 -0.46601822E-07 -0.20926972E-02 -0.21251515E-07 -0.80647867E-03 -0.20171117E-07
    2    2   -0.64595459E-08 -0.54150924E-08 -0.30948457E-07 -0.17867218E-07  0.11228235E-07  0.59585189E-08
    3    2    0.33957892E-03  0.16557892E-07  0.44240820E-04  0.20287297E-07 -0.44306809E-04  0.25228461E-07
    4    2   -0.18463322E-02  0.38922625E-07  0.80649892E-03  0.84489175E-07  0.20927120E-02  0.13094329E-07
    1    3    0.29579847E-03  0.67416942E-07 -0.29580807E-03 -0.10196500E-07 -0.14869351E-03  0.27104619E-07
    2    3   -0.14866845E-03  0.18332774E-07 -0.29584717E-03 -0.11760019E-07  0.29584083E-03 -0.27618085E-07
    3    3    0.54586044E-07 -0.23435702E-07 -0.60894754E-07  0.28412174E-07  0.44602370E-07 -0.12230607E-07
    4    3    0.29588418E-03 -0.43028046E-07  0.14865693E-03  0.16490142E-07  0.29586940E-03  0.18054184E-07
    1    4    0.20926559E-02  0.21922056E-07  0.18463303E-02 -0.59599648E-08 -0.80649626E-03  0.12384962E-07
    2    4   -0.80644676E-03  0.41351780E-07  0.18463514E-02  0.53499646E-07  0.20926713E-02  0.46808221E-07
    3    4   -0.44216666E-04  0.52716477E-08 -0.33959691E-03  0.25754521E-07 -0.44203609E-04 -0.37436054E-07
    4    4   -0.16888038E-07 -0.25373747E-08 -0.13633071E-07 -0.39705124E-07 -0.16794702E-08  0.18523832E-08
