BEGIN_INFO
  # Created by WannierIO.jl 2022-12-17T19:05:57.257
  Fermi Energy:   16.8984999999999985
END_INFO

BEGIN_BLOCK_BANDGRID_3D
from_WannierIO.jl_code
BEGIN_BANDGRID_3D_fermi
7
31 31 31
   0.0000000    0.0000000    0.0000000
   0.0000000    2.1769775    2.3047680
   2.1769775    0.0000000    2.3047680
   2.1769775    2.1769775    0.0000000
BAND: 1
   6.95150709e+00   7.00212078e+00   7.15050557e+00   7.38719634e+00   7.69857966e+00   8.06946292e+00
   8.48547694e+00   8.93433286e+00   9.40478765e+00   9.88204617e+00   1.03394071e+01   1.07329923e+01
   1.10191934e+01   1.11904186e+01   1.12739974e+01   1.12983574e+01   1.12740660e+01   1.11905413e+01
   1.10193373e+01   1.07331172e+01   1.03394943e+01   9.88209814e+00   9.40480616e+00   8.93431270e+00
   8.48541352e+00   8.06935970e+00   7.69845089e+00   7.38706508e+00   7.15039828e+00   7.00206046e+00
   6.95150709e+00   7.03659654e+00   7.16123436e+00   7.37520888e+00   7.66584330e+00   8.01819884e+00
   8.41755738e+00   8.85113828e+00   9.30802119e+00   9.77605179e+00   1.02348225e+01   1.06477076e+01
   1.09681135e+01   1.11724359e+01   1.12781879e+01   1.13167552e+01   1.13062826e+01   1.12440491e+01
   1.11066860e+01   1.08608083e+01   1.04958277e+01   1.00465200e+01   9.56399154e+00   9.08406184e+00
   8.62592389e+00   8.20140018e+00   7.82152851e+00   7.49902182e+00   7.24786100e+00   7.08129724e+00
   7.00933497e+00   7.03659654e+00   7.27857761e+00   7.46273820e+00   7.72282513e+00   8.04542841e+00
   8.41697092e+00   8.82552653e+00   9.26126629e+00   9.71442375e+00   1.01695318e+01   1.05965009e+01
   1.09485506e+01   1.11875329e+01   1.13174272e+01   1.13705219e+01   1.13729046e+01   1.13305356e+01
   1.12274013e+01   1.10292748e+01   1.07075870e+01   1.02784867e+01   9.79595924e+00   9.30830394e+00
   8.84278472e+00   8.41353760e+00   8.03054095e+00   7.70410472e+00   7.44576122e+00   7.26702166e+00
   7.17719696e+00   7.18126963e+00   7.27857761e+00   7.63441023e+00   7.85708304e+00   8.14100255e+00
   8.47470679e+00   8.84830719e+00   9.25410138e+00   9.68519872e+00   1.01308590e+01   1.05676010e+01
   1.09510065e+01   1.12296661e+01   1.13885886e+01   1.14575145e+01   1.14713648e+01   1.14461810e+01
   1.13754347e+01   1.12301789e+01   1.09699780e+01   1.05828233e+01   1.01122603e+01   9.61915811e+00
   9.14424754e+00   8.70789241e+00   8.32081356e+00   7.99130855e+00   7.72802190e+00   7.53984524e+00
   7.43435848e+00   7.41592568e+00   7.48431743e+00   7.63441023e+00   8.04598621e+00   8.28569072e+00
   8.57477161e+00   8.90586519e+00   9.27404000e+00   9.67575848e+00   1.01051315e+01   1.05458664e+01
   1.09595773e+01   1.12858460e+01   1.14840116e+01   1.15732184e+01   1.15977194e+01   1.15858379e+01
   1.15422340e+01   1.14482101e+01   1.12630059e+01   1.09474908e+01   1.05144031e+01   1.00262460e+01
   9.54119189e+00   9.09191300e+00   8.69376496e+00   8.35495461e+00   8.08192310e+00   7.88091353e+00
   7.75736666e+00   7.71445296e+00   7.75176171e+00   7.86485832e+00   8.04598621e+00   8.45676484e+00
   8.69754003e+00   8.98181312e+00   9.30726802e+00   9.67359572e+00   1.00794162e+01   1.05155373e+01
   1.09530168e+01   1.13322264e+01   1.15861999e+01   1.17073998e+01   1.17451257e+01   1.17431094e+01
   1.17190077e+01   1.16667673e+01   1.15558690e+01   1.13360087e+01   1.09787291e+01   1.05226148e+01
   1.00371827e+01   9.57294835e+00   9.15571252e+00   8.79732872e+00   8.50410438e+00   8.28066124e+00
   8.13073542e+00   8.05642567e+00   8.05708557e+00   8.12876265e+00   8.26468630e+00   8.45676484e+00
   8.82797095e+00   9.06334839e+00   9.34349321e+00   9.67038949e+00   1.00459916e+01   1.04666566e+01
   1.09130061e+01   1.13361586e+01   1.16593898e+01   1.18355730e+01   1.18987111e+01   1.19077398e+01
   1.18964739e+01   1.18725133e+01   1.18201291e+01   1.16966010e+01   1.14472855e+01   1.10655896e+01
   1.06091364e+01   1.01426660e+01   9.70699660e+00   9.32250395e+00   8.99881049e+00   8.74110554e+00
   8.55279439e+00   8.43582724e+00   8.39001127e+00   8.41237623e+00   8.49734924e+00   8.63799642e+00
   8.82797095e+00   9.14939032e+00   9.38279966e+00   9.66778931e+00   1.00078418e+01   1.04023353e+01
   1.08381663e+01   1.12780951e+01   1.16557814e+01   1.19058276e+01   1.20227573e+01   1.20576325e+01
   1.20599169e+01   1.20532357e+01   1.20373357e+01   1.19859080e+01   1.18437201e+01   1.15684440e+01
   1.11848360e+01   1.07520137e+01   1.03197942e+01   9.91879369e+00   9.56535773e+00   9.26819726e+00
   9.03260773e+00   8.86210377e+00   8.75840645e+00   8.72085490e+00   8.74618333e+00   8.82926140e+00
   8.96480332e+00   9.14939032e+00   9.44055606e+00   9.68133584e+00   9.98143430e+00   1.03407412e+01
   1.07487854e+01   1.11754321e+01   1.15671739e+01   1.18668347e+01   1.20523404e+01   1.21436614e+01
   1.21780603e+01   1.21892696e+01   1.21932374e+01   1.21813529e+01   1.21119442e+01   1.19324112e+01
   1.16459337e+01   1.12924244e+01   1.09106500e+01   1.05308279e+01   1.01735541e+01   9.85201456e+00
   9.57526130e+00   9.35037689e+00   9.18303555e+00   9.07699475e+00   9.03339801e+00   9.05073277e+00
   9.12588893e+00   9.25606124e+00   9.44055606e+00   9.73988050e+00   9.99491451e+00   1.03107275e+01
   1.06771701e+01   1.10683630e+01   1.14409617e+01   1.17492518e+01   1.19720632e+01   1.21179005e+01
   1.22046468e+01   1.22503405e+01   1.22733397e+01   1.22798837e+01   1.22462001e+01   1.21237115e+01
   1.19120113e+01   1.16465500e+01   1.13520767e+01   1.10449167e+01   1.07369652e+01   1.04374709e+01
   1.01550299e+01   9.89910938e+00   9.68020495e+00   9.50866704e+00   9.39293719e+00   9.33817434e+00
   9.34606816e+00   9.41604509e+00   9.54723132e+00   9.73988050e+00   1.00818263e+01   1.03442957e+01
   1.06558863e+01   1.09943158e+01   1.13258160e+01   1.16158655e+01   1.18460271e+01   1.20186630e+01
   1.21444341e+01   1.22302959e+01   1.22813573e+01   1.23036195e+01   1.22876409e+01   1.21955570e+01
   1.20238405e+01   1.18125032e+01   1.15877492e+01   1.13618317e+01   1.11384473e+01   1.09154380e+01
   1.06889792e+01   1.04589428e+01   1.02325615e+01   1.00240143e+01   9.85048671e+00   9.72744186e+00
   9.66550021e+00   9.66980530e+00   9.74142149e+00   9.87940799e+00   1.00818263e+01   1.04664746e+01
   1.07085672e+01   1.09779021e+01   1.12503549e+01   1.15021144e+01   1.17185680e+01   1.18976926e+01
   1.20443354e+01   1.21608439e+01   1.22431298e+01   1.22864038e+01   1.22836887e+01   1.22097541e+01
   1.20597221e+01   1.18735132e+01   1.16825779e+01   1.15038539e+01   1.13444656e+01   1.12022459e+01
   1.10667561e+01   1.09232722e+01   1.07603748e+01   1.05785185e+01   1.03930905e+01   1.02284092e+01
   1.01079068e+01   1.00476338e+01   1.00549212e+01   1.01302649e+01   1.02698275e+01   1.04664746e+01
   1.08405330e+01   1.10266325e+01   1.12253398e+01   1.14220695e+01   1.16063334e+01   1.17740391e+01
   1.19257881e+01   1.20612188e+01   1.21724220e+01   1.22434370e+01   1.22578894e+01   1.21978323e+01
   1.20633062e+01   1.18906639e+01   1.17135524e+01   1.15533890e+01   1.14230472e+01   1.13267726e+01
   1.12592991e+01   1.12062648e+01   1.11469966e+01   1.10610917e+01   1.09394374e+01   1.07935892e+01
   1.06519087e+01   1.05443148e+01   1.04905593e+01   1.04979174e+01   1.05642737e+01   1.06820395e+01
   1.08405330e+01   1.11288254e+01   1.12458883e+01   1.13760812e+01   1.15127003e+01   1.16515370e+01
   1.17911115e+01   1.19300049e+01   1.20607512e+01   1.21627265e+01   1.22049492e+01   1.21647336e+01
   1.20480387e+01   1.18889333e+01   1.17206919e+01   1.15672388e+01   1.14457130e+01   1.13662306e+01
   1.13303924e+01   1.13305825e+01   1.13506920e+01   1.13683091e+01   1.13589700e+01   1.13049504e+01
   1.12086499e+01   1.10963144e+01   1.10009922e+01   1.09443660e+01   1.09332686e+01   1.09649078e+01
   1.10326007e+01   1.11288254e+01   1.12965760e+01   1.13555439e+01   1.14334376e+01   1.15275141e+01
   1.16362177e+01   1.17584255e+01   1.18894624e+01   1.20127101e+01   1.20920502e+01   1.20894122e+01
   1.20042328e+01   1.18684576e+01   1.17149855e+01   1.15691386e+01   1.14508640e+01   1.13747024e+01
   1.13479828e+01   1.13694235e+01   1.14291261e+01   1.15099723e+01   1.15897174e+01   1.16430162e+01
   1.16455801e+01   1.15880050e+01   1.14910362e+01   1.13908504e+01   1.13124783e+01   1.12648928e+01
   1.12482047e+01   1.12597632e+01   1.12965760e+01   1.13500861e+01   1.13620740e+01   1.13972690e+01
   1.14557048e+01   1.15376347e+01   1.16417849e+01   1.17597146e+01   1.18662514e+01   1.19193510e+01
   1.18937590e+01   1.18051385e+01   1.16842513e+01   1.15581682e+01   1.14493357e+01   1.13759089e+01
   1.13500861e+01   1.13761900e+01   1.14498837e+01   1.15589515e+01   1.16852123e+01   1.18061709e+01
   1.18946563e+01   1.19197502e+01   1.18657987e+01   1.17584204e+01   1.16399690e+01   1.15356884e+01
   1.14539681e+01   1.13959880e+01   1.13613988e+01   1.13500861e+01   1.12969031e+01   1.12607002e+01
   1.12496541e+01   1.12666747e+01   1.13143225e+01   1.13924198e+01   1.14920073e+01   1.15882067e+01
   1.16451244e+01   1.16422280e+01   1.15889029e+01   1.15093243e+01   1.14287469e+01   1.13693551e+01
   1.13482256e+01   1.13752305e+01   1.14516390e+01   1.15701204e+01   1.17161389e+01   1.18697477e+01
   1.20055916e+01   1.20906239e+01   1.20926429e+01   1.20123203e+01   1.18882290e+01   1.17567537e+01
   1.16345163e+01   1.15261004e+01   1.14325191e+01   1.13552310e+01   1.12969031e+01   1.11293758e+01
   1.10335826e+01   1.09662032e+01   1.09346896e+01   1.09456594e+01   1.10018886e+01   1.10966207e+01
   1.12083490e+01   1.13042354e+01   1.13581454e+01   1.13676364e+01   1.13503275e+01   1.13305914e+01
   1.13307730e+01   1.13669368e+01   1.14466778e+01   1.15683986e+01   1.17220082e+01   1.18904074e+01
   1.20497083e+01   1.21665672e+01   1.22065913e+01   1.21636123e+01   1.20606225e+01   1.19290958e+01
   1.17898525e+01   1.16503177e+01   1.15117910e+01   1.13756288e+01   1.12459441e+01   1.11293758e+01
   1.08410063e+01   1.06826951e+01   1.05650300e+01   1.04986394e+01   1.04910650e+01   1.05444273e+01
   1.06515358e+01   1.07927907e+01   1.09384314e+01   1.10601696e+01   1.11463970e+01   1.12061095e+01
   1.12596034e+01   1.13274789e+01   1.14240606e+01   1.15546138e+01   1.17149268e+01   1.18921900e+01
   1.20650716e+01   1.21999301e+01   1.22601044e+01   1.22453487e+01   1.21735884e+01   1.20614750e+01
   1.19253851e+01   1.17733728e+01   1.16057311e+01   1.14217174e+01   1.12252934e+01   1.10268693e+01
   1.08410063e+01   1.04664453e+01   1.02698711e+01   1.01303824e+01   1.00550297e+01   1.00475870e+01
   1.01075569e+01   1.02276842e+01   1.03920512e+01   1.05773648e+01   1.07593809e+01   1.09226752e+01
   1.10666716e+01   1.12026588e+01   1.13452743e+01   1.15049301e+01   1.16838216e+01   1.18748965e+01
   1.20613218e+01   1.22116981e+01   1.22858312e+01   1.22885661e+01   1.22451144e+01   1.21622609e+01
   1.20450304e+01   1.18978666e+01   1.17185213e+01   1.15020502e+01   1.12503249e+01   1.09778714e+01
   1.07085177e+01   1.04664453e+01   1.00811496e+01   9.87898945e+00   9.74127660e+00   9.66982183e+00
   9.66548746e+00   9.72720679e+00   9.84991240e+00   1.00231148e+01   1.02314907e+01   1.04579463e+01
   1.06882993e+01   1.09152176e+01   1.11386905e+01   1.13624383e+01   1.15885909e+01   1.18134993e+01
   1.20250045e+01   1.21969600e+01   1.22891383e+01   1.23051474e+01   1.22830938e+01   1.22321285e+01
   1.21459759e+01   1.20197065e+01   1.18466426e+01   1.16161620e+01   1.13257949e+01   1.09939352e+01
   1.06552068e+01   1.03435069e+01   1.00811496e+01   9.73892830e+00   9.54693311e+00   9.41632807e+00
   9.34671129e+00   9.33887993e+00   9.39341696e+00   9.50872248e+00   9.67978099e+00   9.89830489e+00
   1.01540587e+01   1.04365827e+01   1.07363564e+01   1.10446711e+01   1.13521665e+01   1.16468924e+01
   1.19125411e+01   1.21243912e+01   1.22468427e+01   1.22803435e+01   1.22738820e+01   1.22512669e+01
   1.22059677e+01   1.21192652e+01   1.19731260e+01   1.17498060e+01   1.14408152e+01   1.10674316e+01
   1.06756423e+01   1.03090055e+01   9.99342522e+00   9.73892830e+00   9.44004662e+00   9.25663684e+00
   9.12732015e+00   9.05264499e+00   9.03535693e+00   9.07859845e+00   9.18399552e+00   9.35056999e+00
   9.57474057e+00   9.85097656e+00   1.01722741e+01   1.05295844e+01   1.09096623e+01   1.12918146e+01
   1.16457181e+01   1.19325068e+01   1.21121037e+01   1.21812265e+01   1.21928284e+01   1.21888740e+01
   1.21780163e+01   1.21441179e+01   1.20530400e+01   1.18672088e+01   1.15666232e+01   1.11736948e+01
   1.07461577e+01   1.03378586e+01   9.97894828e+00   9.67972296e+00   9.44004662e+00   9.15006082e+00
   8.96687248e+00   8.83232042e+00   8.74969876e+00   8.72426181e+00   8.76120231e+00   8.86392763e+00
   9.03328989e+00   9.26777082e+00   9.56403231e+00   9.91690283e+00   1.03177336e+01   1.07501806e+01
   1.11835597e+01   1.15678769e+01   1.18436734e+01   1.19858264e+01   1.20368237e+01   1.20523475e+01
   1.20589337e+01   1.20568450e+01   1.20222671e+01   1.19052992e+01   1.16544177e+01   1.12753364e+01
   1.08342870e+01   1.03981395e+01   1.00041822e+01   9.66531441e+00   9.38186736e+00   9.15006082e+00
   8.83027451e+00   8.64180006e+00   8.50208536e+00   8.41738521e+00   8.39463609e+00   8.43950461e+00
   8.55512948e+00   8.74191912e+00   8.99815145e+00   9.32062855e+00   9.70432466e+00   1.01397272e+01
   1.06065069e+01   1.10637777e+01   1.14464743e+01   1.16963541e+01   1.18197315e+01   1.18716460e+01
   1.18952233e+01   1.19063340e+01   1.18973017e+01   1.18340147e+01   1.16570686e+01   1.13324192e+01
   1.09080005e+01   1.04612388e+01   1.00411484e+01   9.66691693e+00   9.34188209e+00   9.06376340e+00
   8.83027451e+00   8.46067729e+00   8.26996539e+00   8.13473968e+00   8.06303786e+00   8.06166650e+00
   8.13469815e+00   8.28296776e+00   8.50460835e+00   8.79612758e+00   9.15312932e+00   9.56949188e+00
   1.00334946e+01   1.05193903e+01   1.09765314e+01   1.13348836e+01   1.15551947e+01   1.16658982e+01
   1.17177305e+01   1.17414985e+01   1.17432927e+01   1.17052698e+01   1.15833273e+01   1.13279937e+01
   1.09474193e+01   1.05093605e+01   1.00736919e+01   9.66921700e+00   9.30484328e+00   8.98162603e+00
   8.69955795e+00   8.46067729e+00   8.05097098e+00   7.87089010e+00   7.75815334e+00   7.72049927e+00
   7.76242425e+00   7.88447478e+00   8.08367579e+00   8.35481894e+00   8.69190222e+00   9.08870666e+00
   9.53720787e+00   1.00221749e+01   1.05109534e+01   1.09451269e+01   1.12615711e+01   1.14470733e+01
   1.15409258e+01   1.15842274e+01   1.15958260e+01   1.15709919e+01   1.14811483e+01   1.12818228e+01
   1.09542096e+01   1.05397259e+01   1.00991732e+01   9.67088896e+00   9.27093583e+00   8.90491417e+00
   8.57606356e+00   8.28903871e+00   8.05097098e+00   7.63954446e+00   7.49009393e+00   7.42172999e+00
   7.43958491e+00   7.54396254e+00   7.73063382e+00   7.99220200e+00   8.31998663e+00   8.70555751e+00
   9.14081035e+00   9.61517703e+00   1.01083814e+01   1.05796421e+01   1.09677490e+01   1.12286114e+01
   1.13740419e+01   1.14446805e+01   1.14696711e+01   1.14555699e+01   1.13861970e+01   1.12264372e+01
   1.09466504e+01   1.05623881e+01   1.01255216e+01   9.68053795e+00   9.25077186e+00   8.84674285e+00
   8.47509762e+00   8.14329809e+00   7.86101740e+00   7.63954446e+00   7.28279477e+00   7.18576223e+00
   7.18150527e+00   7.27070702e+00   7.44845416e+00   7.70554921e+00   8.03062854e+00   8.41232495e+00
   8.84049125e+00   9.30529009e+00   9.79268715e+00   1.02754505e+01   1.07051636e+01   1.10275071e+01
   1.12260178e+01   1.13292594e+01   1.13715974e+01   1.13691143e+01   1.13158001e+01   1.11854354e+01
   1.09457007e+01   1.05929147e+01   1.01656295e+01   9.71077919e+00   9.25839867e+00   8.82382029e+00
   8.41664810e+00   8.04654090e+00   7.72526193e+00   7.46624654e+00   7.28279477e+00   7.03897213e+00
   7.01176843e+00   7.08354104e+00   7.24968300e+00   7.50023316e+00   7.82200933e+00   8.20111871e+00
   8.62494444e+00   9.08253968e+00   9.56215469e+00   1.00446372e+01   1.04941514e+01   1.08594772e+01
   1.11056601e+01   1.12432009e+01   1.13055179e+01   1.13160234e+01   1.12774312e+01   1.11715334e+01
   1.09668846e+01   1.06460564e+01   1.02328806e+01   9.77409674e+00   9.30633738e+00   8.84995532e+00
   8.41703169e+00   8.01840699e+00   7.66678045e+00   7.37679288e+00   7.16331548e+00   7.03897213e+00
   6.95150709e+00   7.00212078e+00   7.15050557e+00   7.38719634e+00   7.69857966e+00   8.06946292e+00
   8.48547694e+00   8.93433286e+00   9.40478765e+00   9.88204617e+00   1.03394071e+01   1.07329923e+01
   1.10191934e+01   1.11904186e+01   1.12739974e+01   1.12983574e+01   1.12740660e+01   1.11905413e+01
   1.10193373e+01   1.07331172e+01   1.03394943e+01   9.88209814e+00   9.40480616e+00   8.93431270e+00
   8.48541352e+00   8.06935970e+00   7.69845089e+00   7.38706508e+00   7.15039828e+00   7.00206046e+00
   6.95150709e+00   7.00935315e+00   7.09505875e+00   7.27518711e+00   7.53955267e+00   7.87468881e+00
   8.26633628e+00   8.70138311e+00   9.16814473e+00   9.65363721e+00   1.01365714e+01   1.05781674e+01
   1.09262600e+01   1.11508179e+01   1.12685323e+01   1.13141498e+01   1.13092073e+01   1.12538876e+01
   1.11280954e+01   1.09014467e+01   1.05622080e+01   1.01392318e+01   9.67876274e+00   9.21464621e+00
   8.76511388e+00   8.34106594e+00   7.95271596e+00   7.61240932e+00   7.33456261e+00   7.13388339e+00
   7.02285693e+00   7.00935315e+00   7.17171215e+00   7.32356036e+00   7.55881871e+00   7.86548409e+00
   8.23026604e+00   8.64065318e+00   9.08579183e+00   9.55497766e+00   1.00323078e+01   1.04872304e+01
   1.08696776e+01   1.11340262e+01   1.12798768e+01   1.13419253e+01   1.13502215e+01   1.13136710e+01
   1.12187131e+01   1.10335574e+01   1.07305029e+01   1.03227724e+01   9.85989479e+00   9.38718128e+00
   8.93018410e+00   8.50182834e+00   8.11120240e+00   7.76822002e+00   7.48477448e+00   7.27370107e+00
   7.14663844e+00   7.11169952e+00   7.17171215e+00   7.46556355e+00   7.66459079e+00   7.93345950e+00
   8.26105181e+00   8.63675978e+00   9.05156851e+00   9.49730341e+00   9.96264215e+00   1.04244762e+01
   1.08377946e+01   1.11453204e+01   1.13243842e+01   1.14045351e+01   1.14248610e+01   1.14046836e+01
   1.13394109e+01   1.12013275e+01   1.09506479e+01   1.05753122e+01   1.01179346e+01   9.63718548e+00
   9.17113180e+00   8.73792642e+00   8.34674098e+00   8.00500631e+00   7.72129133e+00   7.50536403e+00
   7.36672030e+00   7.31257097e+00   7.34609620e+00   7.46556355e+00   7.83762358e+00   8.06238659e+00
   8.34492990e+00   8.67740570e+00   9.05354134e+00   9.46825889e+00   9.91472002e+00   1.03770078e+01
   1.08178801e+01   1.11742399e+01   1.13963393e+01   1.14991760e+01   1.15307572e+01   1.15232825e+01
   1.14832856e+01   1.13924543e+01   1.12090886e+01   1.08933380e+01   1.04609479e+01   9.97734263e+00
   9.49903869e+00   9.05521049e+00   8.65826263e+00   8.31444280e+00   8.02919217e+00   7.80874859e+00
   7.65963341e+00   7.58718201e+00   7.59400503e+00   7.67904894e+00   7.83762358e+00   8.23009499e+00
   8.46300056e+00   8.74676667e+00   9.07817538e+00   9.45548828e+00   9.87618910e+00   1.03311475e+01
   1.07929893e+01   1.12019476e+01   1.14825333e+01   1.16188463e+01   1.16633577e+01   1.16647867e+01
   1.16429041e+01   1.15918183e+01   1.14792957e+01   1.12512320e+01   1.08795891e+01   1.04124412e+01
   9.92465366e+00   9.46413002e+00   9.05209303e+00   8.69666635e+00   8.40163217e+00   8.17021948e+00
   8.00592518e+00   7.91182453e+00   7.88939974e+00   7.93765773e+00   8.05302184e+00   8.23009499e+00
   8.59761891e+00   8.82993714e+00   9.11332901e+00   9.44899032e+00   9.83801178e+00   1.02767737e+01
   1.07474575e+01   1.12021382e+01   1.15556818e+01   1.17465319e+01   1.18124973e+01   1.18216564e+01
   1.18104934e+01   1.17864753e+01   1.17325190e+01   1.16017362e+01   1.13321531e+01   1.09214763e+01
   1.04436444e+01   9.96942669e+00   9.53609057e+00   9.15860491e+00   8.84204752e+00   8.58829560e+00
   8.39868342e+00   8.27441113e+00   8.21593157e+00   8.22221347e+00   8.29051571e+00   8.41694415e+00
   8.59761891e+00   8.92064002e+00   9.15440620e+00   9.44602397e+00   9.79890929e+00   1.02128811e+01
   1.06766172e+01   1.11546852e+01   1.15734980e+01   1.18432011e+01   1.19535281e+01   1.19779111e+01
   1.19742231e+01   1.19649479e+01   1.19481787e+01   1.18960205e+01   1.17455480e+01   1.14398629e+01
   1.10139889e+01   1.05495282e+01   1.01031711e+01   9.70209133e+00   9.35681957e+00   9.07066787e+00
   8.84460171e+00   8.67912025e+00   8.57447335e+00   8.53020912e+00   8.54482392e+00   8.61601171e+00
   8.74158065e+00   8.92064002e+00   9.21053429e+00   9.45616365e+00   9.76933503e+00   1.01510779e+01
   1.05927996e+01   1.10660386e+01   1.15118631e+01   1.18492210e+01   1.20319816e+01   1.20970976e+01
   1.21099251e+01   1.21102691e+01   1.21112172e+01   1.21036026e+01   1.20461086e+01   1.18643439e+01
   1.15380290e+01   1.11301873e+01   1.07048240e+01   1.03005505e+01   9.93628876e+00   9.61988106e+00
   9.35432631e+00   9.14120975e+00   8.98202092e+00   8.87819840e+00   8.83069678e+00   8.83977366e+00
   8.90540733e+00   9.02825010e+00   9.21053429e+00   9.50331735e+00   9.77249230e+00   1.01148463e+01
   1.05217429e+01   1.09671414e+01   1.14008358e+01   1.17579653e+01   1.19960403e+01   1.21227809e+01
   1.21763020e+01   1.21959068e+01   1.22069713e+01   1.22159508e+01   1.22042903e+01   1.21136163e+01
   1.18953468e+01   1.15845460e+01   1.12316224e+01   1.08716439e+01   1.05263080e+01   1.02072661e+01
   9.92040756e+00   9.66962181e+00   9.45902224e+00   9.29357650e+00   9.17860800e+00   9.11892036e+00
   9.11832061e+00   9.17992870e+00   9.30698515e+00   9.50331735e+00   9.84094605e+00   1.01350303e+01
   1.04943950e+01   1.08937552e+01   1.12895638e+01   1.16307979e+01   1.18852398e+01   1.20535648e+01
   1.21541656e+01   1.22078240e+01   1.22354761e+01   1.22519147e+01   1.22550266e+01   1.22092636e+01
   1.20623886e+01   1.18350993e+01   1.15705976e+01   1.12934000e+01   1.10169320e+01   1.07474597e+01
   1.04871779e+01   1.02378978e+01   1.00040680e+01   9.79396657e+00   9.61882733e+00   9.49065295e+00
   9.42002165e+00   9.41496383e+00   9.48111623e+00   9.62240092e+00   9.84094605e+00   1.02415188e+01
   1.05383584e+01   1.08739088e+01   1.12120898e+01   1.15150246e+01   1.17596406e+01   1.19440015e+01
   1.20769348e+01   1.21662330e+01   1.22193121e+01   1.22471190e+01   1.22555550e+01   1.22270678e+01
   1.21177788e+01   1.19365748e+01   1.17282221e+01   1.15181812e+01   1.13178864e+01   1.11290406e+01
   1.09457917e+01   1.07588122e+01   1.05614525e+01   1.03556338e+01   1.01538367e+01   9.97571277e+00
   9.84201222e+00   9.76972806e+00   9.77014360e+00   9.84908668e+00   1.00076344e+01   1.02415188e+01
   1.06674859e+01   1.09212789e+01   1.11843209e+01   1.14310969e+01   1.16460652e+01   1.18260214e+01
   1.19742949e+01   1.20921311e+01   1.21757181e+01   1.22235756e+01   1.22395492e+01   1.22166965e+01
   1.21254622e+01   1.19681243e+01   1.17863648e+01   1.16095440e+01   1.14535309e+01   1.13242572e+01
   1.12178898e+01   1.11216090e+01   1.10168376e+01   1.08864148e+01   1.07251919e+01   1.05470305e+01
   1.03799752e+01   1.02537539e+01   1.01904720e+01   1.02018758e+01   1.02902918e+01   1.04500002e+01
   1.06674859e+01   1.10298530e+01   1.12055184e+01   1.13829250e+01   1.15521708e+01   1.17095608e+01
   1.18553336e+01   1.19884653e+01   1.21008794e+01   1.21782448e+01   1.22112252e+01   1.21942950e+01
   1.21124940e+01   1.19702534e+01   1.18025500e+01   1.16395350e+01   1.15009773e+01   1.13984010e+01
   1.13345082e+01   1.13024889e+01   1.12863953e+01   1.12630838e+01   1.12075763e+01   1.11052078e+01
   1.09660875e+01   1.08233588e+01   1.07133881e+01   1.06601825e+01   1.06724107e+01   1.07465678e+01
   1.08710818e+01   1.10298530e+01   1.12616803e+01   1.13636343e+01   1.14758480e+01   1.15950564e+01
   1.17201227e+01   1.18497629e+01   1.19775289e+01   1.20857860e+01   1.21488329e+01   1.21489272e+01
   1.20801048e+01   1.19539104e+01   1.17997949e+01   1.16458584e+01   1.15136832e+01   1.14188984e+01
   1.13699432e+01   1.13666554e+01   1.13999322e+01   1.14524722e+01   1.15001031e+01   1.15143580e+01
   1.14717464e+01   1.13740196e+01   1.12549920e+01   1.11544750e+01   1.10955816e+01   1.10835974e+01
   1.11133051e+01   1.11756828e+01   1.12616803e+01   1.13622446e+01   1.14108366e+01   1.14789827e+01
   1.15656968e+01   1.16700935e+01   1.17887560e+01   1.19097117e+01   1.20055979e+01   1.20417982e+01
   1.20041384e+01   1.19067909e+01   1.17762879e+01   1.16380781e+01   1.15139882e+01   1.14222696e+01
   1.13758541e+01   1.13801862e+01   1.14321414e+01   1.15204083e+01   1.16268173e+01   1.17273217e+01
   1.17916468e+01   1.17879456e+01   1.17098086e+01   1.15944508e+01   1.14850119e+01   1.14027673e+01
   1.13520656e+01   1.13305254e+01   1.13347953e+01   1.13622446e+01   1.13533582e+01   1.13595638e+01
   1.13908860e+01   1.14472906e+01   1.15275565e+01   1.16264652e+01   1.17288682e+01   1.18055330e+01
   1.18268156e+01   1.17877249e+01   1.17053698e+01   1.16021242e+01   1.14997144e+01   1.14183516e+01
   1.13747710e+01   1.13795025e+01   1.14349442e+01   1.15350158e+01   1.16662920e+01   1.18096538e+01
   1.19402553e+01   1.20232605e+01   1.20177133e+01   1.19241458e+01   1.17945600e+01   1.16691295e+01
   1.15624650e+01   1.14772506e+01   1.14134585e+01   1.13717134e+01   1.13533582e+01   1.12434945e+01
   1.12042390e+01   1.11918415e+01   1.12070104e+01   1.12495817e+01   1.13168270e+01   1.13990918e+01
   1.14762257e+01   1.15237381e+01   1.15286088e+01   1.14962719e+01   1.14440913e+01   1.13935923e+01
   1.13653577e+01   1.13751821e+01   1.14313136e+01   1.15332631e+01   1.16723095e+01   1.18331786e+01
   1.19952541e+01   1.21295360e+01   1.21899486e+01   1.21409397e+01   1.20195766e+01   1.18784551e+01
   1.17409809e+01   1.16133498e+01   1.14969068e+01   1.13937461e+01   1.13077934e+01   1.12434945e+01
   1.10296475e+01   1.09356294e+01   1.08705151e+01   1.08379549e+01   1.08424929e+01   1.08875716e+01
   1.09701083e+01   1.10750259e+01   1.11765631e+01   1.12508574e+01   1.12907097e+01   1.13074811e+01
   1.13219354e+01   1.13547672e+01   1.14207660e+01   1.15260858e+01   1.16678134e+01   1.18351883e+01
   1.20112358e+01   1.21715544e+01   1.22746627e+01   1.22712342e+01   1.21764207e+01   1.20414238e+01
   1.18945278e+01   1.17441426e+01   1.15912689e+01   1.14373069e+01   1.12872201e+01   1.11487492e+01
   1.10296475e+01   1.07234302e+01   1.05781285e+01   1.04698252e+01   1.04048510e+01   1.03904931e+01
   1.04322587e+01   1.05287355e+01   1.06670891e+01   1.08232062e+01   1.09699775e+01   1.10910935e+01
   1.11887336e+01   1.12784462e+01   1.13784475e+01   1.15016758e+01   1.16523632e+01   1.18258517e+01
   1.20099233e+01   1.21845878e+01   1.23135927e+01   1.23458190e+01   1.22845513e+01   1.21704923e+01
   1.20307373e+01   1.18749135e+01   1.17025339e+01   1.15119805e+01   1.13070079e+01   1.10982518e+01
   1.08996331e+01   1.07234302e+01   1.03731062e+01   1.01986500e+01   1.00699162e+01   9.99235092e+00
   9.97278854e+00   1.00167113e+01   1.01239525e+01   1.02852691e+01   1.04819860e+01   1.06903856e+01
   1.08905251e+01   1.10745077e+01   1.12473089e+01   1.14199055e+01   1.16011132e+01   1.17928991e+01
   1.19893227e+01   1.21760300e+01   1.23231311e+01   1.23825651e+01   1.23551643e+01   1.22724530e+01
   1.21529664e+01   1.20062697e+01   1.18308528e+01   1.16205896e+01   1.13752929e+01   1.11073055e+01
   1.08381063e+01   1.05886942e+01   1.03731062e+01   1.00350413e+01   9.85213183e+00   9.71708733e+00
   9.63417589e+00   9.61020235e+00   9.65152466e+00   9.76026963e+00   9.93163937e+00   1.01534185e+01
   1.04080129e+01   1.06767098e+01   1.09447607e+01   1.12045281e+01   1.14544340e+01   1.16946520e+01
   1.19226697e+01   1.21296611e+01   1.22929825e+01   1.23730427e+01   1.23752197e+01   1.23330631e+01
   1.22507926e+01   1.21290411e+01   1.19666446e+01   1.17545089e+01   1.14865971e+01   1.11747727e+01
   1.08483358e+01   1.05381928e+01   1.02643586e+01   1.00350413e+01   9.72889885e+00   9.54417296e+00
   9.40423742e+00   9.31413393e+00   9.28203998e+00   9.31601338e+00   9.42061935e+00   9.59483182e+00
   9.83165819e+00   1.01191291e+01   1.04419352e+01   1.07830501e+01   1.11250612e+01   1.14514136e+01
   1.17475164e+01   1.19997958e+01   1.21887738e+01   1.22877800e+01   1.23110649e+01   1.23027949e+01
   1.22731920e+01   1.22049301e+01   1.20806373e+01   1.18886228e+01   1.16191070e+01   1.12819306e+01
   1.09134623e+01   1.05550641e+01   1.02332719e+01   9.95786568e+00   9.72889885e+00   9.43443261e+00
   9.24474543e+00   9.09657835e+00   8.99736075e+00   8.95722069e+00   8.98565264e+00   9.08864327e+00
   9.26719693e+00   9.51727928e+00   9.83048553e+00   1.01944357e+01   1.05920650e+01   1.09999144e+01
   1.13874992e+01   1.17207270e+01   1.19677340e+01   1.21082953e+01   1.21616470e+01   1.21755008e+01
   1.21765942e+01   1.21620214e+01   1.21051223e+01   1.19694377e+01   1.17306212e+01   1.13943574e+01
   1.10031881e+01   1.06098305e+01   1.02488543e+01   9.93326761e+00   9.66316180e+00   9.43443261e+00
   9.11619810e+00   8.91763959e+00   8.76128833e+00   8.65731090e+00   8.61716508e+00   8.65050031e+00
   8.76298197e+00   8.95556155e+00   9.22488080e+00   9.56390438e+00   9.96159496e+00   1.04005258e+01
   1.08523194e+01   1.12741015e+01   1.16144315e+01   1.18365136e+01   1.19483307e+01   1.19951586e+01
   1.20155030e+01   1.20229877e+01   1.20079615e+01   1.19374630e+01   1.17644722e+01   1.14672754e+01
   1.10817562e+01   1.06709290e+01   1.02804390e+01   9.92953170e+00   9.62089921e+00   9.35088625e+00
   9.11619810e+00   8.74893126e+00   8.54367488e+00   8.38712405e+00   8.29121217e+00   8.26713604e+00
   8.32285029e+00   8.46180857e+00   8.68307734e+00   8.98223525e+00   9.35198952e+00   9.78118096e+00
   1.02508716e+01   1.07274253e+01   1.11579789e+01   1.14845196e+01   1.16837422e+01   1.17849264e+01