written on 15Jun2023 at 10:39:45 
4
0
   0.0000000000000000       2.7152650000000000       2.7152650000000000       2.7152650000000000       0.0000000000000000       2.7152650000000000       2.7152650000000000       2.7152650000000000       0.0000000000000000    
  -1.1570114348285685       1.1570114348285685       1.1570114348285685       1.1570114348285685      -1.1570114348285685       1.1570114348285685       1.1570114348285685       1.1570114348285685      -1.1570114348285685    
216
6 6 6
   0.0000000000000000       0.0000000000000000       0.0000000000000000    
   0.0000000000000000       0.0000000000000000      0.16666666999999999    
   0.0000000000000000       0.0000000000000000      0.33333332999999998    
   0.0000000000000000       0.0000000000000000      0.50000000000000000    
   0.0000000000000000       0.0000000000000000      0.66666667000000002    
   0.0000000000000000       0.0000000000000000      0.83333332999999998    
   0.0000000000000000      0.16666666999999999       0.0000000000000000    
   0.0000000000000000      0.16666666999999999      0.16666666999999999    
   0.0000000000000000      0.16666666999999999      0.33333332999999998    
   0.0000000000000000      0.16666666999999999      0.50000000000000000    
   0.0000000000000000      0.16666666999999999      0.66666667000000002    
   0.0000000000000000      0.16666666999999999      0.83333332999999998    
   0.0000000000000000      0.33333332999999998       0.0000000000000000    
   0.0000000000000000      0.33333332999999998      0.16666666999999999    
   0.0000000000000000      0.33333332999999998      0.33333332999999998    
   0.0000000000000000      0.33333332999999998      0.50000000000000000    
   0.0000000000000000      0.33333332999999998      0.66666667000000002    
   0.0000000000000000      0.33333332999999998      0.83333332999999998    
   0.0000000000000000      0.50000000000000000       0.0000000000000000    
   0.0000000000000000      0.50000000000000000      0.16666666999999999    
   0.0000000000000000      0.50000000000000000      0.33333332999999998    
   0.0000000000000000      0.50000000000000000      0.50000000000000000    
   0.0000000000000000      0.50000000000000000      0.66666667000000002    
   0.0000000000000000      0.50000000000000000      0.83333332999999998    
   0.0000000000000000      0.66666667000000002       0.0000000000000000    
   0.0000000000000000      0.66666667000000002      0.16666666999999999    
   0.0000000000000000      0.66666667000000002      0.33333332999999998    
   0.0000000000000000      0.66666667000000002      0.50000000000000000    
   0.0000000000000000      0.66666667000000002      0.66666667000000002    
   0.0000000000000000      0.66666667000000002      0.83333332999999998    
   0.0000000000000000      0.83333332999999998       0.0000000000000000    
   0.0000000000000000      0.83333332999999998      0.16666666999999999    
   0.0000000000000000      0.83333332999999998      0.33333332999999998    
   0.0000000000000000      0.83333332999999998      0.50000000000000000    
   0.0000000000000000      0.83333332999999998      0.66666667000000002    
   0.0000000000000000      0.83333332999999998      0.83333332999999998    
  0.16666666999999999       0.0000000000000000       0.0000000000000000    
  0.16666666999999999       0.0000000000000000      0.16666666999999999    
  0.16666666999999999       0.0000000000000000      0.33333332999999998    
  0.16666666999999999       0.0000000000000000      0.50000000000000000    
  0.16666666999999999       0.0000000000000000      0.66666667000000002    
  0.16666666999999999       0.0000000000000000      0.83333332999999998    
  0.16666666999999999      0.16666666999999999       0.0000000000000000    
  0.16666666999999999      0.16666666999999999      0.16666666999999999    
  0.16666666999999999      0.16666666999999999      0.33333332999999998    
  0.16666666999999999      0.16666666999999999      0.50000000000000000    
  0.16666666999999999      0.16666666999999999      0.66666667000000002    
  0.16666666999999999      0.16666666999999999      0.83333332999999998    
  0.16666666999999999      0.33333332999999998       0.0000000000000000    
  0.16666666999999999      0.33333332999999998      0.16666666999999999    
  0.16666666999999999      0.33333332999999998      0.33333332999999998    
  0.16666666999999999      0.33333332999999998      0.50000000000000000    
  0.16666666999999999      0.33333332999999998      0.66666667000000002    
  0.16666666999999999      0.33333332999999998      0.83333332999999998    
  0.16666666999999999      0.50000000000000000       0.0000000000000000    
  0.16666666999999999      0.50000000000000000      0.16666666999999999    
  0.16666666999999999      0.50000000000000000      0.33333332999999998    
  0.16666666999999999      0.50000000000000000      0.50000000000000000    
  0.16666666999999999      0.50000000000000000      0.66666667000000002    
  0.16666666999999999      0.50000000000000000      0.83333332999999998    
  0.16666666999999999      0.66666667000000002       0.0000000000000000    
  0.16666666999999999      0.66666667000000002      0.16666666999999999    
  0.16666666999999999      0.66666667000000002      0.33333332999999998    
  0.16666666999999999      0.66666667000000002      0.50000000000000000    
  0.16666666999999999      0.66666667000000002      0.66666667000000002    
  0.16666666999999999      0.66666667000000002      0.83333332999999998    
  0.16666666999999999      0.83333332999999998       0.0000000000000000    
  0.16666666999999999      0.83333332999999998      0.16666666999999999    
  0.16666666999999999      0.83333332999999998      0.33333332999999998    
  0.16666666999999999      0.83333332999999998      0.50000000000000000    
  0.16666666999999999      0.83333332999999998      0.66666667000000002    
  0.16666666999999999      0.83333332999999998      0.83333332999999998    
  0.33333332999999998       0.0000000000000000       0.0000000000000000    
  0.33333332999999998       0.0000000000000000      0.16666666999999999    
  0.33333332999999998       0.0000000000000000      0.33333332999999998    
  0.33333332999999998       0.0000000000000000      0.50000000000000000    
  0.33333332999999998       0.0000000000000000      0.66666667000000002    
  0.33333332999999998       0.0000000000000000      0.83333332999999998    
  0.33333332999999998      0.16666666999999999       0.0000000000000000    
  0.33333332999999998      0.16666666999999999      0.16666666999999999    
  0.33333332999999998      0.16666666999999999      0.33333332999999998    
  0.33333332999999998      0.16666666999999999      0.50000000000000000    
  0.33333332999999998      0.16666666999999999      0.66666667000000002    
  0.33333332999999998      0.16666666999999999      0.83333332999999998    
  0.33333332999999998      0.33333332999999998       0.0000000000000000    
  0.33333332999999998      0.33333332999999998      0.16666666999999999    
  0.33333332999999998      0.33333332999999998      0.33333332999999998    
  0.33333332999999998      0.33333332999999998      0.50000000000000000    
  0.33333332999999998      0.33333332999999998      0.66666667000000002    
  0.33333332999999998      0.33333332999999998      0.83333332999999998    
  0.33333332999999998      0.50000000000000000       0.0000000000000000    
  0.33333332999999998      0.50000000000000000      0.16666666999999999    
  0.33333332999999998      0.50000000000000000      0.33333332999999998    
  0.33333332999999998      0.50000000000000000      0.50000000000000000    
  0.33333332999999998      0.50000000000000000      0.66666667000000002    
  0.33333332999999998      0.50000000000000000      0.83333332999999998    
  0.33333332999999998      0.66666667000000002       0.0000000000000000    
  0.33333332999999998      0.66666667000000002      0.16666666999999999    
  0.33333332999999998      0.66666667000000002      0.33333332999999998    
  0.33333332999999998      0.66666667000000002      0.50000000000000000    
  0.33333332999999998      0.66666667000000002      0.66666667000000002    
  0.33333332999999998      0.66666667000000002      0.83333332999999998    
  0.33333332999999998      0.83333332999999998       0.0000000000000000    
  0.33333332999999998      0.83333332999999998      0.16666666999999999    
  0.33333332999999998      0.83333332999999998      0.33333332999999998    
  0.33333332999999998      0.83333332999999998      0.50000000000000000    
  0.33333332999999998      0.83333332999999998      0.66666667000000002    
  0.33333332999999998      0.83333332999999998      0.83333332999999998    
  0.50000000000000000       0.0000000000000000       0.0000000000000000    
  0.50000000000000000       0.0000000000000000      0.16666666999999999    
  0.50000000000000000       0.0000000000000000      0.33333332999999998    
  0.50000000000000000       0.0000000000000000      0.50000000000000000    
  0.50000000000000000       0.0000000000000000      0.66666667000000002    
  0.50000000000000000       0.0000000000000000      0.83333332999999998    
  0.50000000000000000      0.16666666999999999       0.0000000000000000    
  0.50000000000000000      0.16666666999999999      0.16666666999999999    
  0.50000000000000000      0.16666666999999999      0.33333332999999998    
  0.50000000000000000      0.16666666999999999      0.50000000000000000    
  0.50000000000000000      0.16666666999999999      0.66666667000000002    
  0.50000000000000000      0.16666666999999999      0.83333332999999998    
  0.50000000000000000      0.33333332999999998       0.0000000000000000    
  0.50000000000000000      0.33333332999999998      0.16666666999999999    
  0.50000000000000000      0.33333332999999998      0.33333332999999998    
  0.50000000000000000      0.33333332999999998      0.50000000000000000    
  0.50000000000000000      0.33333332999999998      0.66666667000000002    
  0.50000000000000000      0.33333332999999998      0.83333332999999998    
  0.50000000000000000      0.50000000000000000       0.0000000000000000    
  0.50000000000000000      0.50000000000000000      0.16666666999999999    
  0.50000000000000000      0.50000000000000000      0.33333332999999998    
  0.50000000000000000      0.50000000000000000      0.50000000000000000    
  0.50000000000000000      0.50000000000000000      0.66666667000000002    
  0.50000000000000000      0.50000000000000000      0.83333332999999998    
  0.50000000000000000      0.66666667000000002       0.0000000000000000    
  0.50000000000000000      0.66666667000000002      0.16666666999999999    
  0.50000000000000000      0.66666667000000002      0.33333332999999998    
  0.50000000000000000      0.66666667000000002      0.50000000000000000    
  0.50000000000000000      0.66666667000000002      0.66666667000000002    
  0.50000000000000000      0.66666667000000002      0.83333332999999998    
  0.50000000000000000      0.83333332999999998       0.0000000000000000    
  0.50000000000000000      0.83333332999999998      0.16666666999999999    
  0.50000000000000000      0.83333332999999998      0.33333332999999998    
  0.50000000000000000      0.83333332999999998      0.50000000000000000    
  0.50000000000000000      0.83333332999999998      0.66666667000000002    
  0.50000000000000000      0.83333332999999998      0.83333332999999998    
  0.66666667000000002       0.0000000000000000       0.0000000000000000    
  0.66666667000000002       0.0000000000000000      0.16666666999999999    
  0.66666667000000002       0.0000000000000000      0.33333332999999998    
  0.66666667000000002       0.0000000000000000      0.50000000000000000    
  0.66666667000000002       0.0000000000000000      0.66666667000000002    
  0.66666667000000002       0.0000000000000000      0.83333332999999998    
  0.66666667000000002      0.16666666999999999       0.0000000000000000    
  0.66666667000000002      0.16666666999999999      0.16666666999999999    
  0.66666667000000002      0.16666666999999999      0.33333332999999998    
  0.66666667000000002      0.16666666999999999      0.50000000000000000    
  0.66666667000000002      0.16666666999999999      0.66666667000000002    
  0.66666667000000002      0.16666666999999999      0.83333332999999998    
  0.66666667000000002      0.33333332999999998       0.0000000000000000    
  0.66666667000000002      0.33333332999999998      0.16666666999999999    
  0.66666667000000002      0.33333332999999998      0.33333332999999998    
  0.66666667000000002      0.33333332999999998      0.50000000000000000    
  0.66666667000000002      0.33333332999999998      0.66666667000000002    
  0.66666667000000002      0.33333332999999998      0.83333332999999998    
  0.66666667000000002      0.50000000000000000       0.0000000000000000    
  0.66666667000000002      0.50000000000000000      0.16666666999999999    
  0.66666667000000002      0.50000000000000000      0.33333332999999998    
  0.66666667000000002      0.50000000000000000      0.50000000000000000    
  0.66666667000000002      0.50000000000000000      0.66666667000000002    
  0.66666667000000002      0.50000000000000000      0.83333332999999998    
  0.66666667000000002      0.66666667000000002       0.0000000000000000    
  0.66666667000000002      0.66666667000000002      0.16666666999999999    
  0.66666667000000002      0.66666667000000002      0.33333332999999998    
  0.66666667000000002      0.66666667000000002      0.50000000000000000    
  0.66666667000000002      0.66666667000000002      0.66666667000000002    
  0.66666667000000002      0.66666667000000002      0.83333332999999998    
  0.66666667000000002      0.83333332999999998       0.0000000000000000    
  0.66666667000000002      0.83333332999999998      0.16666666999999999    
  0.66666667000000002      0.83333332999999998      0.33333332999999998    
  0.66666667000000002      0.83333332999999998      0.50000000000000000    
  0.66666667000000002      0.83333332999999998      0.66666667000000002    
  0.66666667000000002      0.83333332999999998      0.83333332999999998    
  0.83333332999999998       0.0000000000000000       0.0000000000000000    
  0.83333332999999998       0.0000000000000000      0.16666666999999999    
  0.83333332999999998       0.0000000000000000      0.33333332999999998    
  0.83333332999999998       0.0000000000000000      0.50000000000000000    
  0.83333332999999998       0.0000000000000000      0.66666667000000002    
  0.83333332999999998       0.0000000000000000      0.83333332999999998    
  0.83333332999999998      0.16666666999999999       0.0000000000000000    
  0.83333332999999998      0.16666666999999999      0.16666666999999999    
  0.83333332999999998      0.16666666999999999      0.33333332999999998    
  0.83333332999999998      0.16666666999999999      0.50000000000000000    
  0.83333332999999998      0.16666666999999999      0.66666667000000002    
  0.83333332999999998      0.16666666999999999      0.83333332999999998    
  0.83333332999999998      0.33333332999999998       0.0000000000000000    
  0.83333332999999998      0.33333332999999998      0.16666666999999999    
  0.83333332999999998      0.33333332999999998      0.33333332999999998    
  0.83333332999999998      0.33333332999999998      0.50000000000000000    
  0.83333332999999998      0.33333332999999998      0.66666667000000002    
  0.83333332999999998      0.33333332999999998      0.83333332999999998    
  0.83333332999999998      0.50000000000000000       0.0000000000000000    
  0.83333332999999998      0.50000000000000000      0.16666666999999999    
  0.83333332999999998      0.50000000000000000      0.33333332999999998    
  0.83333332999999998      0.50000000000000000      0.50000000000000000    
  0.83333332999999998      0.50000000000000000      0.66666667000000002    
  0.83333332999999998      0.50000000000000000      0.83333332999999998    
  0.83333332999999998      0.66666667000000002       0.0000000000000000    
  0.83333332999999998      0.66666667000000002      0.16666666999999999    
  0.83333332999999998      0.66666667000000002      0.33333332999999998    
  0.83333332999999998      0.66666667000000002      0.50000000000000000    
  0.83333332999999998      0.66666667000000002      0.66666667000000002    
  0.83333332999999998      0.66666667000000002      0.83333332999999998    
  0.83333332999999998      0.83333332999999998       0.0000000000000000    
  0.83333332999999998      0.83333332999999998      0.16666666999999999    
  0.83333332999999998      0.83333332999999998      0.33333332999999998    
  0.83333332999999998      0.83333332999999998      0.50000000000000000    
  0.83333332999999998      0.83333332999999998      0.66666667000000002    
  0.83333332999999998      0.83333332999999998      0.83333332999999998    
8
4
postwann            
0
 -0.27809644448600862      0.41552664352984536    
  0.25085269023918250     -0.50239450815873898    
 -0.41896088575452783      0.45660114529404239    
 -0.19710367452411628      0.10867370365367895    
 -0.27809642621249475      0.41552661768636051    
  0.26394842126901238E-01 -0.21173844011861273    
  0.35834900896943489     -0.21040613934701971    
  0.20701276390651147     -0.69923609237703166    
 -0.27809643884277330      0.41552659756876259    
  0.94946084123062220E-02  0.74554985429886567    
  0.17697787521110514      0.30593292001601446    
 -0.25722810631786891      0.54615620826761024E-01
 -0.27809642817272801      0.41552662713296712    
 -0.28674218308837907     -0.31416856314419102E-01
 -0.11636598441489712     -0.55212793121435699    
  0.24731902133933170      0.53594673922504288    
 -0.16235109810009157      0.47353334937462366    
  0.16956618931090092     -0.23235535713863867    
 -0.31233601364327029      0.25184486826638694E-01
 -0.67765528585741719     -0.33054780770943226    
 -0.37558056521601979      0.32735938468233533    
 -0.79283149597249736      0.35098901875473565    
 -0.37827465545144182E-07  0.16862208020401383E-07
 -0.87307707370287996E-07 -0.60119666166883706E-07
 -0.16235110057874652      0.47353330262728549    
  0.16956603006099888     -0.23235524733459334    
 -0.10111009556353681     -0.61273136222183644    
  0.30384128248067205      0.43437798438065095    
 -0.16235112363576365      0.47353331917208363    
  0.16956607268060825     -0.23235526815688501    
  0.41344612298635436      0.58754683721143897    
  0.37381414190131590     -0.10383009885606777    
  0.43761324766533570E-01 -0.51576284336760048    
  0.20574146440046856     -0.15191257771836034    
  0.61427818017620206     -0.12608522213153436    
  0.37035734866960934      0.36914349895295856    
  0.40097352857262020     -0.18825827053734898    
 -0.82180945201307942     -0.35834100733834889    
 -0.56071891327876644E-08 -0.11900631529772824E-07
  0.46337719080735542E-07  0.13718955074977261E-07
  0.43761333975698147E-01 -0.51576281984059413    
  0.20574145346129738     -0.15191258551895620    
 -0.74774030331500729     -0.41571922940725967E-01
  0.17914171428517445E-02  0.32529937727167130    
  0.43761328710114372E-01 -0.51576282751147084    
  0.20574142960153044     -0.15191264079432820    
  0.13346210479517095      0.16765713442764243    
 -0.37214880679522122     -0.69444285800874794    
  0.47119157252873473      0.33363425662291929    
 -0.16489621150791276E-08 -0.82222162401647111E-08
 -0.75389520152010392     -0.31180592700867282    
  0.69633466155073060E-03 -0.32943723390591567E-01
 -0.57872197906394893E-07 -0.33402830016875110E-07
 -0.60062786582949790      0.79952871542496362    
 -0.48678325939170599E-07 -0.25027361554349900E-07
 -0.30724411726039591E-07  0.14689796005201873E-07
  0.47119156758172748      0.33363429267362155    
 -0.25210163923907670E-07  0.25623192583235910E-07
  0.37042494388007619      0.12812194581977412    
 -0.58281581898058543      0.41636824385251753    
  0.47119159773498959      0.33363427342159868    
 -0.50917618963473280E-07  0.68305490376593514E-07
  0.38347021986208185      0.18368398797104768    
  0.58211944689572526     -0.38342454591506553    
  0.51021803006735555     -0.87200293965318379E-01
 -0.15307631424449650      0.20487701927131036    
 -0.38831890305203637      0.49782027849644983    
  0.44566684340513130      0.26349797733163222    
  0.15369164315690151     -0.41545134930772831    
 -0.35367693737253181     -0.82382745714918648    
 -0.80525850085394475E-07 -0.82906536624512032E-08
 -0.25672737176386472E-07  0.33814680382000238E-07
  0.51021805660464903     -0.87200321513883530E-01
 -0.15307640636570893      0.20487703451952088    
  0.41383851259391441      0.14195903374642316    
 -0.66122787659778692      0.19501196533779716    
  0.51021805489052685     -0.87200348708255382E-01
 -0.15307644530073672      0.20487706129396266    
 -0.25519659498706885E-01 -0.63977923150183802    
  0.21556105900441941     -0.45850991162395560    
 -0.12015022104189441     -0.48595846398585629    
  0.20852392366056388      0.19813967271732946    
 -0.31750188874950813     -0.84402555416973710E-01
 -0.68138051362089136     -0.30733710149943128    
 -0.34538967026620832     -0.35906946568331305    
 -0.84296112390107958     -0.20295723214187814    
  0.54061967293975884E-07 -0.63394494318382106E-07
  0.11909955157110850E-06 -0.13773753522694897E-06
 -0.12015027689361878     -0.48595844520923032    
  0.20852397095317327      0.19813993694450102    
  0.31593475242215829      0.67017007381800087    
  0.31756687119037202     -0.12990460388627811    
 -0.12015026361793468     -0.48595843937125688    
  0.20852395527785703      0.19813991993094071    
  0.15670846114280532E-02 -0.58576753742087839    
  0.36381351025317871      0.43724170394461764    
 -0.18060851337489076     -0.46687499849918951    
  0.38037308740837654E-01 -0.28512241445582637    
 -0.16697145723744120      0.55137169446966960    
  0.33720267713629903      0.47018168204353877    
 -0.18060853483869199     -0.46687497633074632    
  0.38037511864156888E-01 -0.28512239987391091    
 -0.19692766822813859      0.13958596590917616    
 -0.32662657975294207     -0.70831984823752769    
  0.76661292281654428E-01 -0.49228849941967445    
 -0.52901189594211884      0.68696542384353720    
 -0.47202072306814184E-07 -0.96982722488382812E-07
 -0.11482346426255147E-06  0.64295021682745899E-08
 -0.18060853960820272     -0.46687498253590681    
  0.38037512335733603E-01 -0.28512243817430516    
  0.36389917935942806     -0.69095761510718456    
 -0.10576035428933086E-01  0.23813810671346305    
 -0.46504243420303976      0.18367233638688166    
  0.18372064991009596     -0.46502342101890315    
  0.72660013982969757E-01  0.38999966238916339    
  0.42521241952598104      0.40226251617864589    
 -0.49457472582590972     -0.73456317998632628E-01
 -0.39161846388500088      0.31086172045957383    
 -0.26760347959224284     -0.52058535254875993    
  0.35422343698244008      0.17861972044466326    
 -0.49457474200458879     -0.73456307422990419E-01
 -0.39161835028309772      0.31086177412154481    
  0.26760355110278627      0.52058539920861946    
 -0.35422342870187951     -0.17861960897139420    
 -0.46504244761244212      0.18367235651156116    
  0.18372055631293469     -0.46502332468100033    
 -0.72660113193109110E-01 -0.38999967133945956    
 -0.42521246461443607     -0.40226257134515336    
 -0.66482089516508219E-01  0.50232465681481941    
  0.18154161611091846     -0.32448955399643981    
  0.99736866129928270E-01 -0.30830476473392499    
  0.69813220361204853      0.11230047975475413    
 -0.44210371740234627      0.18277094133366206    
 -0.84856483717544395      0.11469388827507860E-01
  0.22071779089095958     -0.47211365968233353E-01
  0.95964667814619877E-08  0.26216360994802120E-07
 -0.30927171396739056      0.40248010734504880    
  0.49390640421651588E-01 -0.29412868086651060E-01
 -0.63813036635720866      0.57606063352191161    
  0.39821243077819740E-07 -0.31051718257628507E-07
 -0.66482082578333671E-01  0.50232465579510366    
  0.18154156693679863     -0.32448951986181968    
  0.99736776462843568E-01 -0.30830476925361261    
 -0.69813225271264345     -0.11230042853436065    
 -0.51029633503075977      0.23304376285933764    
 -0.16640753208782219     -0.89719321679054692E-01
 -0.23152179538145129     -0.30974976067418458    
 -0.14982656418417523      0.69105135577526122    
 -0.10029845057847907     -0.21962381143330656    
 -0.45696904924802823      0.84756606405346357    
  0.96506189456904617E-01 -0.72133298509420296E-01
  0.32568352427077391E-07  0.10835378489089346E-07
 -0.55629162829974299     -0.53120127007642910E-01
 -0.19139216438657767E-01 -0.31027146961608607E-01
  0.97753943620915260E-01  0.82269863828888301    
 -0.14350864683915838E-06 -0.80822679117290712E-07
 -0.51029632431956073      0.23304376216895742    
 -0.16640755337919522     -0.89719364688207709E-01
 -0.23152153647238527     -0.30974986986588937    
  0.14982672154850221     -0.69105135688741781    
  0.53729936033725656     -0.49352648280234952E-01
  0.93750902800946487E-01 -0.12982328692456493    
  0.28431288299154667     -0.31999460800307772    
  0.53302692506230687     -0.46463138987548569    
  0.16193109339176748     -0.35122463411704224    
  0.37269291184954267      0.83062215296711694    
  0.46325292577332505E-01  0.13942875279974976    
  0.48220394906627046E-07 -0.17884625060263463E-07
  0.47027318162207354      0.21681810965767268    
  0.31589565037035777     -0.14173967172999538    
 -0.74237108349058567      0.24665364360471143    
  0.32896832074503668E-07  0.13513423407929012E-06
  0.53729940363626405     -0.49352646280005880E-01
  0.93750934656979423E-01 -0.12982326694159621    
  0.28431309813104050     -0.31999444104387992    
 -0.53302700834885119      0.46463122696569437    
 -0.46132142440325152      0.20446254487571616    
  0.47403562453860540E-07  0.32867158650632136E-07
 -0.22482631228040742      0.44139616163793760    
  0.29683864818108800E-01  0.70648357171037157    
 -0.29183797080717816      0.40026014057958520    
  0.25629344058250880      0.65902479663431623    
 -0.26477798366896021E-01 -0.50390607714877034    
 -0.11232468573780856E-06 -0.61293482099066809E-07
 -0.49255444394974196     -0.52609062242417869E-01
  0.44258540446981798     -0.55146908298267239    
  0.42315647285796204     -0.27488364094335427    
  0.17635778919205093E-07 -0.63678961060018850E-07
 -0.46132145371060640      0.20446259425509997    
  0.10216242613991748E-06 -0.66031703544976789E-08
 -0.22482651103244064      0.44139638961026972    
 -0.29683826972648590E-01 -0.70648333419059017    
 -0.41180616330317787     -0.31359531651603584    
  0.49015514922680553E-01  0.25100683810568253    
  0.78692238633381706E-01 -0.16307411246577494    
 -0.19879089665421719E-02 -0.79616400413864719    
 -0.41180618737393726     -0.31359530853924911    
  0.49015433669080004E-01  0.25100694278853786    
  0.44971397293619025      0.56757305900768484    
 -0.14734406134400821      0.34723845014364602    
  0.56206660204613311E-01 -0.43938794182130153    
  0.67611784158570498     -0.58876456433804003    
 -0.17206441977743432E-07  0.15825012544079356E-07
 -0.78715198625052165E-08  0.10066944913355706E-06
 -0.41180618412211273     -0.31359531641417798    
  0.49015420892142961E-01  0.25100695018132235    
 -0.52840619850006232     -0.40449897409472996    
  0.14933192343411844      0.44892548346446787    
  0.50424469067306299     -0.49872055119224851E-01
 -0.28372774962591740     -0.24031107924220182    
 -0.23119473893227249      0.22704252373580408    
  0.21800981597769450     -0.67266011073569487    
  0.46242348556843127      0.20929342815896196    
 -0.19412114672130412E-01 -0.54108448666989786E-01
  0.83237267183256891     -0.21496967622730617    
 -0.74344761814692199E-07 -0.21886540544843537E-06
  0.27881296938662320      0.38874702973683739    
 -0.15121242989211769      0.83506205071837170    
 -0.21748139467310068     -0.60391145375611348E-01
  0.58720694907582762E-07  0.81801091184388225E-07
  0.50424468692174473     -0.49872052837358578E-01
 -0.28372762317056999     -0.24031105513187079    
 -0.23119438370883849      0.22704265693367565    
 -0.21800974069056181      0.67266027720267907    
  0.96654033586436150E-01 -0.49056906411060214    
  0.23806354283066422     -0.43968827284540651    
 -0.21418701310630450     -0.35856827918334339    
 -0.56383171032349733      0.87444144686929973E-01
  0.47317225985977168     -0.16157968609776563    
 -0.49981297730376312      0.13675099710612438E-01
 -0.55222278453386597      0.14353635354527655    
  0.54268399058604672E-01 -0.41412830043671600    
  0.47317229808574068     -0.16157966812164051    
 -0.49981294332236120      0.13675005221098779E-01
  0.55222281841276299     -0.14353630194015241    
 -0.54268463175937982E-01  0.41412827221494380    
  0.96654033122758484E-01 -0.49056905092344200    
  0.23806352386584412     -0.43968821474768721    
  0.21418697863672861      0.35856833527901588    
  0.56383174682635262     -0.87444181980248448E-01
 -0.54159220832590990E-01  0.52831595672094023    
 -0.35477416814089713     -0.24218857127161936    
  0.11072430647696975     -0.14549614287630994    
  0.69629568201579539     -0.12317604396819497    
 -0.39111870496739304     -0.40094780359145189E-01
 -0.40941529778674285      0.59973905973008701    
  0.44882690668637648      0.34156280420909296    
  0.31834122749948080E-07 -0.21689782315305117E-07
 -0.48398334538040527      0.21697172821524918    
 -0.24249465376784463E-01  0.32103596047548633    
 -0.77793192024426472     -0.99263253650333158E-01
 -0.96200090103835000E-07  0.93883138747207645E-07
 -0.54159237330889058E-01  0.52831596932785863    
 -0.35477413023371024     -0.24218866977016268    
  0.11072446229144217     -0.14549600121158263    
 -0.69629568398042896      0.12317591432054734    
  0.54420869861439680     -0.26701127139969527    
 -0.78834157414229661E-07  0.18912996538318380E-07
 -0.14281656761746875     -0.33488094197424317    
  0.63548197539019025     -0.31010113667724881    
  0.24543222675527439E-01 -0.36323472044111826    
 -0.59131606748703414     -0.38774388861331660    
  0.60178877656463781      0.72858916148202738E-01
  0.41511051644444266E-07 -0.14559872273025309E-07
  0.30229885474329810      0.20287245304296547    
 -0.63145403676389356      0.31822285371932757    
 -0.36399197856220522      0.48473500449719381    
 -0.62070390704585442E-07  0.68275178452465523E-07
  0.54420876732005974     -0.26701129034912313    
 -0.26261405305342774E-07 -0.88574142888072033E-08
 -0.14281643359259041     -0.33488103963694721    
 -0.63548194566653482      0.31010101695660208    
  0.20685890443041741     -0.49833287992548403    
 -0.11145913153795162      0.11497897030268811    
  0.24184179433505221     -0.35318954391061180    
  0.32307491012125911     -0.62898547508119429    
 -0.67203582568415646E-01 -0.51346921106451238    
 -0.84404153488606068E-01  0.33579184648148552    
 -0.60027540031850755E-01  0.77996763838436078    
  0.18044720744816713E-06  0.34135270277331194E-07
  0.38348568825639817     -0.50191155418938357E-01
  0.88293747647476073      0.22193369186568671    
 -0.14649000099165746     -0.11274017958811892E-01
 -0.31391237753813476E-07  0.72859231356032917E-07
  0.20685896858696382     -0.49833294508505754    
 -0.11145922270288787      0.11497897121249115    
  0.24184219467417573     -0.35318946629191678    
 -0.32307506689263144      0.62898519516702822    
 -0.23115614842817031      0.52905591328346924    
 -0.34490701789083117E-07 -0.32519758121098115E-07
 -0.26432108398494220      0.75626430900830843    
 -0.15271588069025660     -0.39283519825118761E-01
 -0.23115620118983168      0.52905590902019273    
 -0.13161786695201648E-07 -0.51155213140927172E-08
  0.90253861525546195E-01 -0.50810455244185648    
 -0.56364667453780481      0.28749449791667497    
  0.43242117812552015E-08 -0.12064972838690216E-07
 -0.54594703569849057     -0.83781969075214691    
  0.26730165281074471E-07 -0.31964687344953888E-07
  0.45973691965864559E-07  0.11026667443951603E-07
 -0.23115621411510817      0.52905589130253283    
  0.36820543016412302E-07  0.18258592311055844E-07
  0.17406729161810586     -0.24815971014153199    
  0.71636256913339003     -0.24821094728046583    
  0.36462073617886903     -0.42633726461826427    
 -0.13933460565314462      0.12777678372850149    
  0.19240265758528091     -0.33545258685636875    
 -0.46756069582413123      0.53045922727352413    
  0.52689376022386825     -0.18618562530359162    
 -0.35588144946816738E-01  0.79042247715317964E-02
 -0.71630788355754571      0.41628343888603347    
  0.20522936055573703E-07  0.16921082184837517E-07
  0.18348909695904800      0.15692724222909424    
  0.65080732007034892      0.70967510943204815    
  0.10451418712894239      0.59945373697801035E-01
 -0.66088694807221633E-09  0.54930494524209194E-08
  0.36462074210238876     -0.42633723774248083    
 -0.13933460435068465      0.12777678820268629    
  0.19240264325517878     -0.33545260994282255    
  0.46756070191593585     -0.53045922929543521    
  0.44820727599073051     -0.28488807166603097    
  0.12593684116225443     -0.41068231510001424    
 -0.16738887662448326      0.73552241426754594E-01
  0.61738278197704144     -0.34472961107994160    
  0.47021060242198143      0.24539480318458456    
 -0.31375987942228140      0.72158715849022878E-01
  0.63221164371189509      0.46404706150022057    
 -0.60283217875345425E-07 -0.23632574149158373E-07
  0.21090610213372107      0.33181328509497932    
 -0.69425062589893216     -0.21289397872440149    
 -0.22689399857053225     -0.51636217482668700    
  0.28625810923642154E-07  0.51333582391227479E-07
  0.44820727529866949     -0.28488805274688955    
  0.12593685592157070     -0.41068228166860027    
 -0.16738899380230621      0.73552271252407458E-01
 -0.61738279203775281      0.34472958077109928    
 -0.42123056033511008      0.47473560743386428    
 -0.78761274020049246E-01  0.30164143004045879    
 -0.27425853351388207     -0.63329443826321230    
  0.11261459366573208     -0.10506375219481880    
 -0.24423610446797367     -0.19375145237575728    
  0.62198407134119671      0.12627324356321559    
 -0.87180314403925693E-01 -0.12696470865157888    
 -0.40493717104434657      0.55884293498128879    
 -0.24423612891042434     -0.19375140751295011    
  0.62198403730069396      0.12627329764909678    
  0.87180315889494514E-01  0.12696473577258263    
  0.40493720606538008     -0.55884293374894045    
 -0.42123056208212328      0.47473564964129294    
 -0.78761287489351087E-01  0.30164144873128440    
  0.27425852813748686      0.63329438252096815    
 -0.11261462686919971      0.10506380515811464    
  0.13691796462569988     -0.51313197862653581    
  0.38872563643484048      0.18279059763359748    
 -0.15774764139541686     -0.92437328710563288E-01
  0.20388655565720479     -0.67707482214740056    
 -0.37543661237013415     -0.37465179296979062    
 -0.26431922412078074      0.18381369071083670    
  0.68168623991449229     -0.38773074329389284    
  0.10681623370391741E-06 -0.38105007364492705E-07
 -0.37987782826212602     -0.10136208273630304    
 -0.30900394877748605      0.65713345232965226    
 -0.28515109031258318      0.48662059650303446    
 -0.74672654524488874E-07  0.11154479799469534E-06
  0.13691805645338062     -0.51313198807457716    
  0.38872565550936022      0.18279059625861760    
 -0.15774759910510661     -0.92437593219391198E-01
 -0.20388665678902332      0.67707472912498734    
 -0.29228753630884857     -0.47883160642108608    
 -0.18399734017430375      0.43428257026041306E-01
  0.38544750168338560     -0.31263832730293990E-01
  0.52021376578655865     -0.47893390797309832    
 -0.49063931908648506     -0.26749803284234575    
 -0.26539776287923394E-01  0.24992669994214144E-01
 -0.68165191233459643      0.47089227868329286    
  0.94382185503401660E-07  0.66713987515635003E-07
 -0.20608187478224191      0.12579611238644206    
 -0.22119407768969079     -0.93715640025190805    
 -0.97406495004533876E-02 -0.12009071655997020    
 -0.61004828085617608E-07  0.35789222772616936E-07
 -0.29228749093417239     -0.47883167338912763    
 -0.18399732472070385      0.43428308499422884E-01
  0.38544760348424517     -0.31263605162607087E-01
 -0.52021383034621393      0.47893373278177453    
  0.19170037753996003     -0.48080902848637530    
  0.25430120370056541     -0.27163860978954457E-01
  0.64425947474131029     -0.13328752963708979    
  0.48265677281453578     -0.29551127486671793E-01
  0.19170037350556246     -0.48080903119513935    
  0.25430122536670902     -0.27163906567810033E-01
 -0.63627951151503348     -0.21027324216294505    
  0.12809098441163672      0.44854531303416167    
 -0.27431576537501318     -0.34781000580464388    
 -0.36326616249132626      0.81964428621061880    
 -0.40184231027986692E-07  0.72595973410197873E-08
 -0.64961679964962851E-08 -0.20944562385411654E-07
  0.19170038470373385     -0.48080901502506823    
  0.25430118429358639     -0.27163916288198989E-01
 -0.79799492026542060E-02  0.34356081108951753    
 -0.61074776830667010     -0.41899419554032963    
  0.26966054078183105      0.46734305244277907    
  0.13624947393245693     -0.84139180391640436E-01
 -0.38930701865291982E-01  0.42628016762247101    
 -0.12654026899806534      0.69569211776531947    
 -0.13309386445424523E-03  0.51784838159899038    
  0.34608539512131742     -0.10252778837998296E-01
  0.45113054476592418     -0.63908845033402217    
  0.55220680155486489E-07  0.12038497479300226E-08
  0.38675627805073109      0.99395803416218786E-04
  0.26958813901753149E-01  0.91000350255628737    
 -0.12003067858865853     -0.84729306586680680E-01
  0.26817734190360884E-08  0.14962636784233954E-07
  0.26966048316535252      0.46734301681729579    
  0.13624945485449350     -0.84139127200844974E-01
 -0.38930661695738514E-01  0.42628017518494360    
  0.12654028622799385     -0.69569216867981953    
 -0.44444526048300820      0.41222156786434105    
  0.31019630746952269E-07  0.44381445295858806E-07
  0.33523951207845792      0.14197285161609699    
 -0.99530579693755311E-01 -0.70006687685739433    
 -0.34786741060746029     -0.10737825535278367    
  0.29793261064298132      0.64127698425359048    
 -0.74373860430146085E-01 -0.60160343481519973    
 -0.52810449626693276E-07  0.28910080859099644E-07
  0.80941436411170867E-01  0.35495113062281880    
 -0.40639593082738562      0.57865562849506169    
 -0.48381702896244921      0.36521127069842368    
 -0.21929874965348602E-07 -0.14473309378099842E-07
 -0.44444521368370316      0.41222153644761772    
 -0.55125480055507750E-07  0.51854314676141532E-07
  0.33523952157694392      0.14197284410166555    
  0.99530598866736361E-01  0.70006691931712928    
  0.38852896353703859      0.36207211915462045    
  0.40075753080825099      0.15463967888902813    
  0.10554928184812398      0.14929282632320165    
 -0.27388573185700754      0.65190996558743453    
  0.26804635068634902     -0.28763273743676537    
 -0.26141560469006553      0.67747304165274880    
  0.46053918969823815     -0.32559848962909965    
 -0.48684095798460893E-08  0.29601395156089278E-07
  0.50716661065568991     -0.15523733401233819    
 -0.25055581203477950      0.20217294607104647    
 -0.78093671207239301      0.71896702531228707E-01
  0.17982040679063672E-08  0.14903477427568730E-07
  0.38852895666557102      0.36207214234072682    
  0.40075749178171449      0.15463973740680134    
  0.10554927609840983      0.14929281841705908    
  0.27388578677573699     -0.65190994658401269    
  0.30482498116599832     -0.39633537595302304    
  0.42971739868703035      0.25562264706436355    
 -0.17037319137001511     -0.59756242303634710    
  0.28727756365721174      0.17709813058099522    
 -0.19082399280793891     -0.46215386759539617    
 -0.43623441279247610      0.24433476737685075    
  0.31043718753878374      0.13236666657643903    
  0.58630796891608206     -0.20579321840115247    
 -0.19082399664120719     -0.46215388425481480    
 -0.43623445756327939      0.24433491889309256    
 -0.31043713132812994     -0.13236661880573888    
 -0.58630788163014647      0.20579326683617830    
  0.30482500310501182     -0.39633535562307287    
  0.42971741226937543      0.25562270860870079    
  0.17037317322746420      0.59756237496421916    
 -0.28727753820341201     -0.17709823747438863    
  0.29378110849625161     -0.41284691126617512    
  0.26366503323137647     -0.26216699069155697    
  0.11735816570718666     -0.30203692568404722    
 -0.19785028124780796      0.67886326315897449    
  0.48081535668785022E-01 -0.50529933276606254    
  0.15036298130078939E-01 -0.55483987951792178E-01
  0.13101673209240755      0.84964157323263345    
  0.56502424818387108E-07 -0.11093116007430272E-06
 -0.19887607685584777     -0.43509680006069046    
  0.21730878814845059      0.82034794420380819    
 -0.14132704315994285     -0.17598831932000067    
  0.17741292309091614E-07  0.36016171757877437E-08
  0.29378113941420086     -0.41284689793973517    
  0.26366502797248809     -0.26216702714232237    
  0.11735811563058142     -0.30203711765609959    
  0.19785021258058524     -0.67886318910742582    
 -0.16183995630040385      0.47370827261233495    
 -0.25035535088299965      0.14164678598181588    
  0.33670774362000616     -0.68639580183000526    
  0.14174816270303736      0.24912415437964322    
 -0.16184000927930725      0.47370826767709218    
 -0.25035530004550377      0.14164691720963024    
 -0.41369281055328117      0.38095145926626844    
 -0.35573499505884043      0.47313161021526545    
  0.96238906953031264E-01  0.48883840648689225    
  0.44005497602029914     -0.74707877978938442    
 -0.74259728381388308E-07  0.21826202901102201E-07
 -0.50795690591271502E-07 -0.94252619732500724E-07
 -0.16183996760263683      0.47370824306991099    
 -0.25035540810330553      0.14164690392313420    
  0.76985104113854896E-01  0.30544432641721547    
  0.21398682879549566     -0.72225573302160218    
 -0.49847248090609186      0.78406729932320410E-01
  0.58525465866487960E-07 -0.88484032508604328E-08
  0.48202554702161371     -0.11414526289884004    
 -0.60497220822320141     -0.36607161694736384    
 -0.46226555778659767     -0.17801164758064161    
 -0.50034552975249513     -0.49965425990018447    
 -0.48337514589263575     -0.14481314568578071    
 -0.12408160618718786E-06 -0.98547021841008517E-07
 -0.38529537883073040      0.31132789017516083    
  0.68288603546185611     -0.18348469688633284    
 -0.36709958744100191      0.34620851712677997    
 -0.89226651978407982E-07 -0.24878370601508108E-08
 -0.49847244883841502      0.78406705646387145E-01
  0.19523671553283878E-07 -0.83295461322300176E-07
  0.48202517688834590     -0.11414524327108347    
  0.60497246543237371      0.36607173424306894    
 -0.22656753987375791      0.48968711377098911    
  0.85057126321815571E-01 -0.13567833914215943    
 -0.30574582547910140      0.29958291255750741    
 -0.27535299886264003      0.65129152363185683    
 -0.38518222695688603      0.34858049551852281E-01
 -0.90980075263851989     -0.33102123999866603E-01
  0.14152238839956369      0.39469252396491072E-01
 -0.25267231817680388E-07  0.43014855588893067E-07
  0.46673325149275809E-01  0.51574077130296170    
  0.12589176589409477E-01 -0.34600824898915006    
  0.21014951919020255     -0.75351844130300560    
  0.96740212219480391E-07  0.63159951378379569E-07
 -0.22656754986718045      0.48968709578942876    
  0.85057087729579220E-01 -0.13567833108425245    
 -0.30574560205605600      0.29958291911656337    
  0.27535295736611470     -0.65129165980562476    
 -0.40054499952979650     -0.39277913145975579    
  0.10024993706060616      0.16028405935810575    
 -0.37267143285287146     -0.10326270245846832    
 -0.68810121389512535      0.16283968966085602    
 -0.16904612032983443      0.17238854127063291    
 -0.81637724371071674      0.51060468059203101    
 -0.32172706173314101E-01  0.11611017666985129    
 -0.29140754981428664E-07  0.10800467776357440E-07
 -0.54117055721621687     -0.13934324080550425    
  0.32195321475580796E-01  0.17101314588771753E-01
  0.80205106110614188     -0.20761259821368316    
  0.58156475444926565E-07 -0.27838059058424104E-07
 -0.40054500197602272     -0.39277913376036722    
  0.10024990665516355      0.16028408864852353    
 -0.37267154490646570     -0.10326270055565553    
  0.68810115036965336     -0.16283968118110184    
 -0.53935986857574364E-01 -0.50382619201051770    
  0.26504653533545730      0.26077020898075903    
 -0.14891382765262995     -0.28779152034416455    
 -0.63152204759351793     -0.31808792170689887    
 -0.43740886896863035     -0.19373792577075832    
 -0.81791223214051811      0.22630389517803884    
 -0.22547069913803400     -0.10401386349690058E-01
 -0.18762417094954819E-07 -0.67368536953583813E-07
 -0.29913977339388859     -0.41006662865600491    
  0.55645700576734076E-01  0.14426244583789567E-01
  0.72390870037425781      0.46369428402075569    
  0.69056625612053599E-08  0.12277647976083403E-06
 -0.53936006755596795E-01 -0.50382619844875154    
  0.26504653445387133      0.26077027017184096    
 -0.14891401824023565     -0.28779143038757710    
  0.63152205824270913      0.31808782972687261    
  0.43334630480542702     -0.24942130546060962    
 -0.73957239118874529E-01  0.49450003603472509    
  0.32988905052156986      0.41756760252240105    
  0.36897026705314812      0.28402726513095922    
  0.25057821823029258     -0.43267834963399776    
 -0.18320115117255212     -0.46522823343377268    
 -0.11983857089352500      0.44994364960161837    
  0.75426361107466715E-02 -0.53210202882675395    
  0.25057826476074180     -0.43267834163610558    
 -0.18320114673879634     -0.46522828490299273    
  0.11983851329473010     -0.44994358536764667    
 -0.75427336488470631E-02  0.53210203584956495    
  0.43334628921051443     -0.24942127883630413    
 -0.73957371669001987E-01  0.49450011132893990    
 -0.32988895501287913     -0.41756762189778157    
 -0.36897022168754995     -0.28402728807916039    
  0.24831962300896487      0.43192855536995584    
 -0.64906992083550941     -0.57487679180085405    
 -0.11714960090723590E-06  0.16531189820253994E-06
  0.90352628726235334E-08 -0.85570833532123457E-07
  0.43306534611708469      0.25108983569459242    
  0.28184279809021973      0.57500709484606005E-01
  0.57334322430840745      0.54852751505679342    
  0.13020762212059381      0.14180159901691766    
  0.43306535426695209      0.25108982861511708    
  0.28184268738155971      0.57500954737460558E-01
 -0.34219775215800896     -0.11705976196583351    
  0.20517808216944086     -0.70268506588461943    
  0.43306533780763501      0.25108982133350338    
  0.28184253592109082      0.57500803543713445E-01
 -0.23114546719800635     -0.43146795466817922    
 -0.33538568565636334      0.56088356750287161    
  0.48669819199100067      0.11456384076259658    
 -0.43231369250211099      0.25120670637618026    
  0.63426706194174759E-01 -0.67013099517140656E-01
  0.17409615325936789     -0.67910005529670558    
  0.48669819857078783      0.11456381561449924    
 -0.43231372218312292      0.25120688589523027    
 -0.63426453968283988E-01  0.67013013127107460E-01
 -0.17409604124225328      0.67910003032189525    
  0.47877489146800672     -0.14413394843636251    
  0.24879135282842099     -0.43370822497497380    
  0.43660239371719134      0.54851136137313072    
 -0.85286137676607018E-01 -0.35213030542985406E-01
  0.47877490664003525     -0.14413392710245762    
  0.24879111421002462     -0.43370845953798265    
 -0.43660252974012265     -0.54851117191232801    
  0.85286084826594222E-01  0.35213101141649827E-01
 -0.10515692248986934      0.49656949412016299    
  0.34185579300247071E-01  0.46215936364434232E-01
 -0.94292659593878253E-01  0.85449697887251241    
  0.40190540027697598E-08 -0.17299760586620855E-06
 -0.31983936026842069      0.35575792812473528    
 -0.95922704811460882E-01 -0.84320383612680516    
  0.13361416292545572     -0.18191333405744431    
 -0.27366298724477968E-07  0.91071532723875183E-07
  0.15694463372046064      0.48178656489252347    
  0.34095636881402269      0.14832243239732085    
 -0.13026091135558898     -0.29670072566343553    
 -0.11069339888335619      0.69838889184719977    
  0.15694459193206425      0.48178659410560498    
  0.34095636206583918      0.14832238069921208    
 -0.13026082178657600     -0.29670101865915283    
  0.11069348449541376     -0.69838877402082389    
  0.25994121919257196      0.49468442274184565    
  0.55071174571018405E-02 -0.36037026886814531E-01
 -0.61929008917780437      0.55033505635917201    
 -0.74467659967381939E-07 -0.45977163511194010E-07
 -0.12894221689950677      0.20412817062951599    
 -0.89706311583678988      0.34995243962712913    
  0.11434269033537224      0.37978941896301056E-01
  0.33495699691117307E-07  0.28340187394910815E-07
  0.47429225500659344      0.29959739486735132    
 -0.68708142548828899E-01 -0.17612558675619447    
  0.12189889101341719     -0.36699841618018308    
  0.65784390733681675      0.25930955080269619    
  0.47429225869511771      0.29959738031076522    
 -0.68708196564088803E-01 -0.17612556065735147    
  0.12189897069833587     -0.36699853427666101    
 -0.65784384445127853     -0.25930951922342355    
  0.43964559195987618     -0.27363970959067052    
 -0.18816439096965903      0.29064469669199078    
 -0.37667995313136415     -0.68561293597055006    
  0.87661580406047021E-07  0.10621249432023894E-06
 -0.20436847988316428     -0.32835033410316294    
 -0.76422688534802308     -0.49476302009142231    
 -0.12876863899111662      0.70746320033146584E-01
 -0.57050313968499843E-07 -0.10720007004889643E-07
  0.25415192010426119     -0.47595496355960654    
 -0.81551303548646169E-02  0.15992754551735675    
  0.36608274716532829      0.22184162305645819    
 -0.65440798964629665      0.26786236726840051    
  0.25415191881110055     -0.47595495760092044    
 -0.81552389287254563E-02  0.15992751492103055    
  0.36608295252825990      0.22184160819984797    
  0.65440788754809531     -0.26786237511692179    
 -0.12171603910950009     -0.48016953084093111    
  0.86492053074205162E-02 -0.70705383051053039    
 -0.34058926020811087     -0.37231902357294927    
 -0.32403722427143920E-07  0.42620636479042082E-07
 -0.47669704889352138     -0.13467555881181681    
  0.60800210617524764      0.36101732769270234    
 -0.49273219483150271      0.10879949266201575    
  0.94755348351672127E-07  0.13119592287752310E-06
 -0.35194220930233799     -0.36160628829904123    
 -0.10038241935110297E-06 -0.48373441767358941E-07
  0.47230352800268721      0.14935538307851517    
  0.63450417102577117      0.31209674382561642    
 -0.35194218498028823     -0.36160630099004659    
  0.86017712149710986E-08 -0.31041673769737756E-07
  0.47230329558751577      0.14935561271157138    
 -0.63450417419837102     -0.31209699192584200    
  0.29144794674131558     -0.40627342647372322    
 -0.42675711235673774     -0.26053465466904718    
 -0.12236717030683730     -0.33975482997723316    
  0.59838867682788643      0.10734980499933390    
  0.49264591768147174E-01 -0.49756708401942584    
  0.49984990818817521      0.12251008693513957E-01
 -0.30055889430905376E-01  0.60719815806268562    
  0.30350537301010377      0.19568216034779817    
  0.29144793272991049     -0.40627343650167119    
 -0.42675733659982606     -0.26053451020892143    
  0.12236730452835619      0.33975481200635932    
 -0.59838858962789387     -0.10734965418261622    
  0.49264613326323606E-01 -0.49756707020690516    
  0.49984988041940248      0.12250899265257633E-01
  0.30055818622728568E-01 -0.60719809762707544    
 -0.30350551497649786     -0.19568224603998349    
 -0.48904980710047646     -0.10687373382569167    
  0.24604244273657011      0.14901269272634268    
  0.22809075224722000      0.55908694138607683E-01
  0.45501259465359606     -0.63598662748317358    
 -0.48904980905646073     -0.10687374076341656    
  0.24604231539811933      0.14901257617396882    
 -0.78169026110818340     -0.14147516394947562    
 -0.12136523408414712      0.14450713685625435    
 -0.48904978624318102     -0.10687369446205947    
  0.24604237714985341      0.14901279340518717    
  0.55359941718914385      0.85566498239187494E-01
 -0.33364741624929806      0.49147951875195017    
 -0.47470862732445457      0.15125018393864875    
 -0.86685927232697990     -0.18168736416264295E-01
  0.83483626245725146E-07 -0.12951210954178022E-06
  0.70110233116551451E-07 -0.16956896136853142E-07
 -0.25129626699964758     -0.43757584581147835    
  0.17249888424661023E-07 -0.31644693666370760E-07
 -0.41010566734932719      0.27783261758341732    
  0.11257647762963233      0.69808773105794175    
  0.11377115020011323E-02 -0.49535472299128386    
  0.49503161916736571     -0.50491944261335864    
  0.50329961073617036     -0.36220965629505789E-01
  0.14677377830618447E-07  0.43318682186788348E-08
 -0.25129625657917737     -0.43757579249751227    
  0.31861567914811718E-07 -0.17312926649127697E-07
 -0.41010559670284019      0.27783261214549709    
 -0.11257652696475853     -0.69808780393832404    
 -0.42842090214547440     -0.24866265749303915    
  0.18975721807135731      0.68116976642050542    
  0.22028154751045523     -0.45398061710188764    
  0.38132881805521409E-08  0.85847031735463787E-08
 -0.21382773287487922      0.49538270818976871    
  0.12326234566679246      0.10222381743282041    
 -0.19513306457907301     -0.38098996542188551    
 -0.52789065278323577     -0.47045887219845001    
 -0.38415190472769878      0.44807755446029260E-01
  0.15291669582607870     -0.89746846946686620    
 -0.79761106082096994E-01  0.12338790683434485    
 -0.18702456931462287E-07  0.43216245130905054E-07
 -0.21382773359535556      0.49538268623450760    
  0.12326236578331605      0.10222383412828120    
 -0.19513322910767825     -0.38099013906707463    
  0.52789057828420449      0.47045876082032717    
  0.59995519173497908E-01  0.51436123923735344    
  0.34131813012042433      0.58156054795051051E-01
  0.65696368271340300      0.42467820780764026    
  0.11694724077224382E-06  0.65745424312115376E-07
 -0.18100652863276889      0.53098808465647040    
 -0.33423561827914554E-01  0.18607496399127180    
 -0.24943013811198747      0.29551953962278849    
 -0.58928198499197848     -0.39082836885522509    
  0.22852925516731379      0.77902403391436420E-01
 -0.94773858579901626     -0.17023665110022018    
  0.92072567328478711E-01  0.77712888467202104E-01
 -0.20765696618181090E-07 -0.67340580983863994E-08
 -0.18100655293823356      0.53098813414408452    
 -0.33423558226055319E-01  0.18607498223853633    
 -0.24942996039363516      0.29551981748814726    
  0.58928199358541211      0.39082817234411776    
  0.10831723722045103      0.54822394232303551    
  0.12358853180943846E-01  0.34296565261490303E-01
  0.14622354645854291     -0.81547995929090022    
  0.23519923881025392E-07  0.18898244251899671E-06
 -0.45815690141579379      0.21643048794253303    
 -0.33282835244364162      0.16575895804946764    
  0.22981890769107149     -0.22843504680667498    
 -0.70704185681065601      0.95846223656661442E-02
 -0.39317373633832094E-01  0.47677568329768721    
  0.52181898253790167E-01 -0.84703655751213935    
 -0.57759566407012027E-01 -0.21819496824546022    
 -0.79377479945454854E-07 -0.90967662954332834E-07
 -0.45815694049975469      0.21643049671402642    
 -0.33282845863236299      0.16575894487633805    
  0.22981854764714305     -0.22843540598502241    
  0.70704178024663189     -0.95848170251862496E-02
 -0.28905961501291461      0.41723349152867156    
 -0.31749509244047923E-01  0.47922159271830328E-01
 -0.22500864899049536      0.82971518951278567    
  0.14473980917067775E-06  0.28007979448642571E-06
  0.16298012733880635     -0.48070438097932922    
  0.24047178292599797E-01  0.52213862450030631E-01
  0.60939767458678462E-01  0.85752117567216624    
 -0.15353022542569559E-06  0.47388686349649557E-07
 -0.99035892776113854E-01 -0.49693242697855100    
  0.30356326780508874      0.21470940527307095    
 -0.18150262942124754     -0.26843271869876795    
 -0.70707040985910763      0.71676518373059300E-02
  0.35955977242554998     -0.31555932656481056    
  0.77971299222321364E-01 -0.84505284460431340    
  0.98715030487619829E-01 -0.20297928601413781    
  0.17207404409591549E-07  0.76005860578827092E-07
 -0.99035881764680866E-01 -0.49693239656264149    
  0.30356336256792188      0.21470936342224811    
 -0.18150268063068323     -0.26843244623175699    
  0.70707049374314201     -0.71677853348893240E-02
 -0.47436615354443318     -0.17204408079240852    
 -0.16092704567157375E-07 -0.30314205878032446E-07
  0.38189938267870638     -0.31548447338876007    
  0.20169892580668236      0.67772969429147956    
 -0.47436616075603316     -0.17204406973421260    
  0.71718520971473536E-07  0.72574072761206879E-07
  0.38189945479543003     -0.31548436604976160    
 -0.20169885013363234     -0.67772972390088038    
 -0.31884033292396141     -0.37910213737766174    
 -0.17279046472564288      0.68567004328085068    
 -0.49759368913774515      0.83803216609134520E-01
 -0.92027638111351883E-07  0.47006868743038063E-07
 -0.48773223999399373      0.86572766166337550E-01
 -0.50741252929841640     -0.49247596099515500    
 -0.17622103596284294      0.47283032650815593    
 -0.55866296506787774E-07 -0.22258772565684371E-07
  0.49190411395584760      0.12517826984211233    
 -0.33541915064513012E-01 -0.46685249430480774E-01
  0.85457953507218942      0.93541376341465532E-01
  0.89418790017701381E-07  0.32697549454607736E-07
  0.36278455119563779      0.35374750538143018    
 -0.36903005096503454E-01 -0.36998503859355103    
 -0.26132814282904621     -0.19159052952801278    
 -0.51772192970026976      0.48162639623476944    
  0.36278456812271526      0.35374745829686716    
 -0.36902842208314850E-01 -0.36998505279593907    
 -0.26132822809622808     -0.19159037832791279    
  0.51772193083184948     -0.48162643230313562    
  0.46049497266813244     -0.12963521246457457    
  0.77343074755660512      0.34928324684954470    
 -0.20658997803135515      0.90916252770875255E-01
 -0.13947682779028400E-06  0.22696216798025884E-07
 -0.36616542476322350      0.38340512199402937    
 -0.16147100557807961      0.76991088861179890E-01
  0.21131524942827731     -0.41745570584528718    
 -0.83105629411313137E-01  0.67903824200608665    
 -0.45461444676726231     -0.11067565583032708    
  0.56373659073318727      0.38755717371218967    
 -0.52936473848838028      0.29147195788960922E-01
 -0.16463885850883028      0.69961119641156713E-01
 -0.50881109822902704      0.14895586789103882    
  0.17833353460783058      0.14059355937032180E-01
  0.39173223065075807     -0.25586963157468950    
  0.41149068309927839     -0.54651158223263463    
 -0.11067565673178374      0.45461446620243251    
 -0.38755724117187118      0.56373650735647407    
  0.29147052775111305E-01  0.52936476465740190    
 -0.69961101972489864E-01 -0.16463887961161508    
  0.56027035232641043     -0.23910833423980901    
  0.59829175664841810E-07 -0.18264529043267314E-07
 -0.21588285698270288E-08 -0.58093002517861475E-07
  0.61901999029159593     -0.49572027235174371    
 -0.78501231137392238E-07  0.40263751475827313E-08
  0.66372863965196649      0.63957869488941221    
 -0.37237147961481365     -0.10836451042095448    
 -0.17099806269988657E-09 -0.20016660901418875E-07
  0.55672129906093870      0.67257427729653166E-01
  0.26352471923922255     -0.75871020389681063E-01
  0.47061994839581811     -0.45090478218511848    
 -0.42579827764624845      0.65066984946285114E-01
  0.33660733189716124     -0.44850604734078969    
 -0.66056069341988544E-01  0.26615463976287279    
  0.15518495399890819      0.63302131534219430    
 -0.15654945786234989      0.40128549022534399    
 -0.44925058681315223E-01 -0.52825967489218428    
 -0.17759348140816680     -0.21472932375073039E-01
 -0.28701035329254837     -0.36952464049490263    
 -0.43131174393836569     -0.53100819224629259    
 -0.42357347313761967     -0.19876853140605533    
  0.41069506047034893     -0.54710978447031455    
  0.52521532513777214     -0.72286755778951384E-01
 -0.17664268166722913      0.28246858439635029E-01
  0.19876858366660352     -0.42357346980454952    
 -0.54710973698317455     -0.41069496257795629    
  0.72286894004358518E-01  0.52521542412262856    
  0.28246901638773126E-01  0.17664264774650940    
 -0.30303611203188613     -0.43502381474076246    
  0.16453681745521490     -0.70200702928436887E-01
 -0.43332060474542933     -0.17651260881683792    
  0.63903095077063932      0.24421074671676379    
  0.52145456432515991     -0.20091597007724074    
  0.20668663511219751E-01 -0.30029960173461125E-01
 -0.79022744565115788      0.24885638889256720    
  0.95579854319947822E-07  0.82322166108256536E-07
  0.35249825376742427     -0.43641351078554197    
  0.14959451781648090E-01 -0.18846020938545444    
  0.26135875982046286     -0.28502429314553746    
  0.13239057364290918      0.69460253380478909    
  0.18782574352850712      0.15170991091181155    
 -0.95988726708103245     -0.76192944821131092E-01
  0.88802719735832633E-01  0.81429353563672979E-01
  0.33707479129731992E-07  0.40264811441746859E-07
  0.35249823417726106     -0.43641348158385151    
  0.14959361450354324E-01 -0.18846023262643086    
  0.26135854185767315     -0.28502435470103915    
 -0.13239071884512460     -0.69460258681213949    
  0.53940798765538245     -0.12857901887317268E-01
 -0.72028278336470464E-01 -0.14302180967305653    
  0.41588433258045998      0.10134403621570531    
  0.33175607410280561     -0.62445007952906850    
  0.53940802707168611     -0.12857864543928064E-01
 -0.72028248280290461E-01 -0.14302183888404302    
  0.41588428026060870      0.10134397200618191    
 -0.33175608479161028      0.62445008261330637    
  0.20130496066488529      0.33023738524775115    
 -0.49942519044145339      0.76118830719933595    
 -0.41248507385630344E-01 -0.14101412330123297    
  0.96507239263386528E-08  0.97444160286829689E-08
  0.44217225652878051     -0.26953780925003773    
 -0.28948915157212729     -0.18993747757406082    
 -0.75081210082480632      0.21962249413668972    
 -0.53319601215673487E-07 -0.51861141991025463E-07
 -0.60193178272616443E-01 -0.52673842150262562    
  0.45070538882401964E-01 -0.17311607967314133    
 -0.46316354762936884     -0.66354364580466646E-01
  0.56631514488654333     -0.38377945386177442    
  0.21124039830960015     -0.48626544179537418    
 -0.12559025408199925      0.12738772159531539    
 -0.36793429277294198     -0.28904638639858782    
 -0.68233295782043268      0.49205163220261063E-01
  0.37602529305839077     -0.27843921972249802    
 -0.65951993546075116      0.18174949495202308    
  0.19729127434864174      0.49209022195204039    
  0.16095265862509175      0.78068969006909184E-01
 -0.27843920699210462     -0.37602529004070334    
 -0.18174956727512584     -0.65951997434471665    
  0.49209010487590826     -0.19729131853274115    
 -0.78069003755489266E-01  0.16095273362857687    
 -0.52210422428023828      0.93401144314905177E-01
 -0.11788016491734388      0.29959368597918667    
  0.65514214934126513E-01  0.78149803768878578    
  0.86704224672952349E-07 -0.14217864085558087E-07
 -0.34238587660805897     -0.40598385357310141    
  0.42481524128612319     -0.63655915751627351E-01
  0.15015019253370915     -0.10432587492626923    
 -0.70491535681966000     -0.55626688926026215E-01
 -0.34238588676248172     -0.40598384177892455    
  0.42481516164695299     -0.63655882986484821E-01
  0.15015023347077089     -0.10432606551640485    
  0.70491537524021941      0.55626656818995028E-01
 -0.30055479179694444      0.25347242306581669    
  0.10760909617982208      0.71814212703109526    
 -0.32182512975142785     -0.46318387443446041    
 -0.75536347241973302E-07  0.93374011453848988E-07
  0.26176357938131134     -0.50955231904511833    
  0.36703256612559659     -0.19267415448679312    
 -0.28854156025515532      0.52767125708847507    
 -0.32678938963934501     -0.17752615449170867    
 -0.34740337733246091      0.22615746035313414    
  0.57248963149457033      0.20478986623160396E-01
 -0.19493703499565870      0.31671186277821439    
  0.51303566573017689      0.31382715550788276    
  0.77395809945318000E-01  0.32129623445012362    
  0.60766845450832707     -0.14668883808777924    
  0.26879346026673995     -0.34140298014826714    
 -0.53824161592922104      0.14659500759783986    
 -0.18474762554604302     -0.59719920662708625    
  0.31567700428479711     -0.97823625346077442E-01
  0.14777018854957452     -0.53792008054224671    
  0.34198923285083366     -0.26804722100507627    
 -0.33455774059796572      0.45003692019155073    
  0.84789602144313220E-01  0.26079194493942631    
  0.43324738905985338     -0.48692397821506328    
  0.86239420501939251E-01 -0.42201975683246201    
  0.22246452224998253      0.51475401765960715    
 -0.26824726450504016     -0.56966066432228131E-01
  0.20506470440677704      0.61866530814512188    
 -0.32235989345976557     -0.28569548928369548    
 -0.11179249154871744E-07  0.42360373494000144E-11
 -0.61663512399153086      0.68509684063179077    
 -0.37981376185764809     -0.78389725856260889E-01
  0.64596472654162044E-08  0.27295282621047887E-07
 -0.70301714250684627E-01  0.60508957625072313    
  0.54222380393345047E-08  0.30743055510193534E-07
  0.11906356588954168E-06 -0.58171019108526931E-07
  0.25098972822376175      0.75228214787556691    
 -0.35581685049220468     -0.37624633016679648    
 -0.32889211409313218      0.10821361959305553    
 -0.31761802917395826      0.71489275091260240    
 -0.38631730656904443E-08 -0.10327652615191166E-06
 -0.51707767376396108     -0.15413307285861499    
 -0.10670934454524011      0.11940032205704525    
 -0.45078236653187838E-01 -0.42567404496790040    
 -0.58214250622122404E-01 -0.70470633250370551    
 -0.28100046577730070      0.26574266719578493    
 -0.28453911704069329     -0.86479514688900727    
  0.13426793006034385      0.59653506291231749E-01
 -0.27117241834939287E-07 -0.17533441791720168E-07
 -0.51707767084390976     -0.15413305442728945    
 -0.10670933923395609      0.11940029485931279    
 -0.45078307921303011E-01 -0.42567385467819707    
  0.58214325078056427E-01  0.70470644832396578    
  0.56029489057002446     -0.27953027777189828E-01
 -0.11037562114844357      0.15348697620762639    
 -0.97294547576407316E-02  0.38659103631202968    
 -0.15662527651853084     -0.68954221432683027    
  0.56029491390286290     -0.27953034906283425E-01
 -0.11037563726269131      0.15348699536422197    
 -0.97292500526601645E-02  0.38659084640447555    
  0.15662540520716628      0.68954226836388033    
 -0.12030553252748058E-01 -0.24114241683739127    
 -0.78175759163926462     -0.56217791416087193    
  0.12044696978984748      0.30313038132196123E-02
  0.24551303897618119E-07 -0.25406406702971486E-07
  0.46943048774362156     -0.30317836153057226    
 -0.36338359748748841E-02  0.36273782872376807E-01
 -0.39606044282694480     -0.72768470632297355    
 -0.16862185493330713E-06 -0.13171302415858756E-07
 -0.22271289321315216     -0.56698735726902405    
  0.32264247730929678E-08 -0.46659327402562549E-07
 -0.87361712069708217E-07 -0.30785537727214065E-07
  0.52152424727959545     -0.59744184938214517    
  0.83420134934515444E-01 -0.55452975374074920    
  0.11774567217010094     -0.24766442664424032    
 -0.46607207603395467      0.45560407754239501    
 -0.40756319367943250      0.13939192727659630    
 -0.39831250142740564E-07 -0.15455318898902266E-08
  0.91880205650838920     -0.73480311493292955E-01
  0.37344008134743956      0.10462280067949256    
 -0.52716600620101844E-08 -0.37584101854718438E-07
 -0.43852678831897468     -0.34950878833598586    
  0.15561083741131701      0.22580296835768621    
 -0.16152863342837323     -0.63143235605414827    
 -0.83064765213894845E-01  0.42265597671651434    
 -0.41800962492918835E-01  0.68070267834438958    
  0.15940319650217921      0.97401961210633825E-01
 -0.19182463588150353     -0.33381872850268740    
  0.12595425236873589     -0.57957218187785642    
 -0.37771318951857019      0.74488208681819960E-02
  0.59274025344781089     -0.77047392629740821E-01
  0.35996860669591851     -0.15601031209326266    
 -0.58756871721276560      0.29091923791196343E-01
 -0.41241551268471482E-01 -0.18219670088702794    
  0.65825685513777255      0.17832936427336879    
 -0.59161341942964951      0.41975587223834161E-01
  0.30303519000187379      0.23748964774350953    
  0.33356661333969007      0.49599457241059181    
  0.24383488613494364      0.28856068501155774    
  0.44373649497933521      0.38623993234149678    
  0.18638980697081145      0.34521798261275471    
  0.24812333239465537E-01 -0.39238473075335545    
  0.34378539793501861     -0.63962442298850020    
 -0.36002265748913144E-02 -0.56400160216325945    
 -0.23288148989537725E-07 -0.33386304675640565E-07
 -0.53002609205219431     -0.33516126222928738E-01
  0.37836821529942066      0.20336551567929764    
 -0.18283220929309624      0.11670117877729197E-02
 -0.68539607748399589      0.17387412115824288    
 -0.53002606832862054     -0.33516085601206488E-01
  0.37836826351941261      0.20336538203040633    
 -0.18283229555367847      0.11671300659808462E-02
  0.68539605133504444     -0.17387426426965433    
 -0.23567981981799171     -0.47515433665952278    
 -0.97917283641794778E-02 -0.32180158323955255    
  0.39644687616770585      0.67665435514834560    
 -0.21985545254274142E-07  0.95878596185821676E-07
 -0.36819046690608709      0.28871989383023972    
  0.67097110109301494      0.13340634756483580    
 -0.31655305080427670     -0.42528902266806795    
  0.15273606173963533      0.93124860173750629E-01
  0.74720230753939090E-01  0.52487473993166600    
 -0.11793722264753527      0.13450410314860159    
  0.46473397252973697     -0.54274723977905420E-01
  0.60046746476359858     -0.32777776788908464    
  0.28871988237438201      0.36819049889737548    
 -0.13340633421193557      0.67097107982932003    
 -0.42528902534542024      0.31655307165599067    
 -0.93124914861442573E-01  0.15273602733535505    
 -0.19772774098700907      0.49191495603557073    
  0.16938867672948860     -0.57515405748888221E-01
  0.42960881304502219      0.18536360980069455    
 -0.68390898524190802     -0.16369807303674801E-01
  0.28789456867225000     -0.40310581951036184    
  0.37927097913493968     -0.59678595874063556    
 -0.50258076347331770      0.45111369171082306E-01
  0.16923037410913145E-06  0.42403519530451963E-09
  0.48662681196899239E-01 -0.50224930518869471    
  0.50048893326828856E-08  0.49752658026599984E-07
  0.40513081314643401     -0.28503813404462486    
  0.60532082345920335     -0.36549496024230904    
 -0.20515261814963029     -0.45087691689187326    
  0.32719633437402151      0.62685134011839383    
 -0.21222277808751266      0.45780329586540003    
  0.22823314386552908E-07  0.12458793430445950E-07
  0.48662700502211068E-01 -0.50224928587541118    
  0.34433063089795265E-07 -0.11822538974026619E-06
  0.40513064106558838     -0.28503793670866406    
 -0.60532101692220908      0.36549500844247634    
 -0.50375840130383032      0.54565561823122256E-01
 -0.94776415958452209E-01 -0.35953888274491597    
  0.95323318325887765E-01  0.30969787650703867    
  0.27876165724973723      0.64983992188007356    
 -0.50375839551629209      0.54565577929424507E-01
 -0.94776473080589854E-01 -0.35953894894275779    
  0.95323564641775077E-01  0.30969766650939179    
 -0.27876181992044285     -0.64983987422509371    
 -0.19319114190812045      0.43765065414166532    
  0.81882771333212934      0.22296862944741191    
  0.22002101601549059      0.50358775707186693E-01
 -0.72041957268140317E-07  0.21683902139689814E-07
 -0.40969248267959835      0.29965197560545093    
 -0.40482949914860171E-01 -0.40812792650742953E-01
 -0.62983802626178653     -0.58511560443081245    
  0.16750686848906207E-06 -0.90934596683640136E-07
 -0.84855415935840242E-01 -0.52333178651388068    
  0.31977722847288191E-01 -0.17600553943955588    
 -0.24297371680985901E-01 -0.46726130671527172    
 -0.67509091712436853     -0.11068711546945911    
  0.16607522268073033     -0.43742707547554882    
  0.44244902609673742     -0.52176462451082906    
 -0.24088291347240415      0.47228383489635251    
  0.13840757272986437      0.11333073312763457    
 -0.43742706029196410     -0.16607521419787005    
  0.52176457355316952      0.44244910143777971    
  0.47228372942227870      0.24088305133723092    
 -0.11333091537439306      0.13840755289035703    
 -0.33515279794846248     -0.41079090282499570    
  0.60309328133067747E-01  0.16841412828245567    
 -0.25467255027067026     -0.39251144812457928    
  0.63998962026033135     -0.24168749183057014    
 -0.15472728111274644E-01 -0.56055573373999235    
 -0.27295827612459567     -0.26372040778321091E-01
 -0.58278902170990432      0.29181374441278474    
  0.37945720835084668     -0.20383836928575230    
  0.55572442216344468E-07  0.70240999391277430E-07
 -0.38196631506252671     -0.83886728553903545    
  0.32376230470676071      0.21349796594086323    
  0.79711537864274883E-08 -0.19677622818442949E-07
 -0.49319185415680933     -0.26687814966935325    
  0.15931794029214974     -0.22320282317046977    
  0.38676439849772815E-01 -0.65061695054527113    
  0.13199347101672886E-01 -0.43053877380793443    
 -0.31901997108621610     -0.51894312821983313    
 -0.11630327134297630E-07 -0.43362898180270128E-07
  0.60993591908473841E-07  0.47824458648758620E-07
 -0.41738344577242614      0.67432584624697034    
 -0.26004651354653019      0.38897200063286436    
 -0.59383785712631121      0.33964112583027156    
 -0.72118271458931363E-01  0.52523853830474876    
  0.10833980383786704E-01  0.17855855139042726    
  0.38897200699778856      0.26004653370112701    
 -0.33964101711152317     -0.59383786779418879    
  0.52523855325152646      0.72118420515229431E-01
 -0.17855858038403372      0.10833896949533978E-01
  0.23436519032765657      0.47555183024808967    
  0.72727881692431469E-03 -0.17888546617652523    
 -0.36961665235900015     -0.28689183141588659    
  0.61208027912514595      0.30554412879083992    
 -0.34809723933645044E-01  0.52902256003703318    
 -0.90072632170494424E-01  0.15455566423683359    
 -0.17665156852899536     -0.43326396007965595    
 -0.37730503177065278     -0.57064906808878346    
  0.43146578951883069     -0.20663536722419296    
  0.56079743118197856     -0.63694589757244402    
  0.22240889884196122     -0.38464840416256925E-01
  0.93962300943625532E-08  0.41404853957189405E-07
  0.38958110092246978E-01 -0.50520509311570627    
  0.11882806688234490      0.35232187117584807    
  0.11182512117937579     -0.30412886093317176    
  0.64414743170297983     -0.29167470512765470    
  0.38958092682677463E-01 -0.50520511401111312    
  0.11882806999546967      0.35232186110410629    
  0.11182501477378640     -0.30412903382043061    
 -0.64414733356306086      0.29167475942003046    
  0.28683674773187867     -0.41876475135468283    
 -0.11325226453076750E-01  0.56358580292277596E-01
 -0.66036519710937092      0.55043075794632501    
 -0.60495879480733667E-07 -0.96330382649491813E-07
 -0.35246209592186722     -0.26831214791729413    
  0.87032571220895449      0.21520273438397819    
  0.69381535363697471E-07 -0.21350802320821832E-07
 -0.14201352507105510E-07  0.22087802152780827E-07
 -0.47745160834691663      0.19991578824301837    
 -0.17729991099882786      0.18431423782775980    
 -0.53174017530625861     -0.37427584990372470    
 -0.11240840238025511      0.48083361759586241    
 -0.47745161233480615      0.19991579912180585    
 -0.17729996357800301      0.18431417337956124    
  0.67866692372570347      0.75440883206191786E-01
  0.39607465226559690      0.20859383778405033    
 -0.47745158844017377      0.19991576564350491    
 -0.17729987423164512      0.18431414508795674    
 -0.14692678666332382      0.29883502687378449    
 -0.28366626010678897     -0.68942752832492993    
  0.45645145538973186      0.14322353354521247    
  0.79348320987959875      0.30096220531360596    
  0.22570003675352088      0.21744729961446553E-02
  0.66863047336257475E-07  0.61008684486166451E-07
  0.49539733969658922     -0.11054737364841206    
 -0.56741220254008969E-01  0.92191525157193106E-02
 -0.74861442021168756      0.42264955341637800    
  0.31909225425921703E-07 -0.11049358622550009E-06
  0.37310736397863264     -0.34284227410396473    
 -0.28802311863355640      0.23514573767077548    
  0.16471392359474091     -0.27904942480816475    
  0.67176361201796142      0.22075694026880205    
  0.37310738130060528     -0.34284222955105581    
 -0.28802296974558295      0.23514574597411333    
  0.16471384451841617     -0.27904956770603928    
 -0.67176366946033594     -0.22075686916808865    
  0.26149023945650163     -0.42617234585670233    
 -0.15518242627385650E-01 -0.49975911950897656    
  0.12453922610255472      0.23452039609928396    
 -0.44539412975628029     -0.48074341083701499    
  0.26149018680485725     -0.42617235766180261    
 -0.15518330045336261E-01 -0.49975912008856049    
 -0.12453922967721025     -0.23452034284542789    
  0.44539421870043239      0.48074336823502195    
 -0.23833097520718155     -0.43954334695090325    
  0.44056322948079485      0.23644037091765377    
 -0.72056141014534336E-01  0.65138166230801875    
  0.39394378303646248E-01  0.26259838108178274    
 -0.23833095003632135     -0.43954333202597268    
  0.44056325161840687      0.23644031612116351    
  0.72056109626788656E-01 -0.65138169582409122    
 -0.39394372483512519E-01 -0.26259836745426124    
  0.19498195541733238E-01  0.53003435847774305    
 -0.20781755110780178     -0.24589423628237358    
 -0.68552100546830219     -0.38090975345885991    
 -0.81225972712091725E-07 -0.14360585389760572E-07
 -0.18393425525949553      0.34749048747638295    
 -0.12862738583588998     -0.71467672931555082    
  0.28999247535245232      0.48375105507105892    
  0.88835058114088274E-08 -0.58603756661007705E-07
  0.46938379611241055      0.24845491976874026    
  0.42276526818892812     -0.76089117504637593E-01
  0.15681749785874649     -0.94006673522887316E-01
 -0.75278551256767315E-01 -0.70308828493972420    
  0.46938372642331305      0.24845497020192400    
  0.42276526065168685     -0.76089202907736145E-01
  0.15681755122351734     -0.94006728828180688E-01
  0.75278550837015443E-01  0.70308828967994108    
 -0.32968594327266759     -0.15443119058198007    
 -0.61728893095795723     -0.34489763263864348    
 -0.42938306473037996     -0.42788826651782108    
 -0.53336790674085266E-07  0.63574625701843653E-07
  0.31101618958183811E-01  0.36273200622840296    
 -0.99543910708483757E-02 -0.70703670966607635    
 -0.15587052279894875      0.58580078726564067    
 -0.92561253840766500E-07 -0.50436595435602281E-07
 -0.49715812735213277      0.34683133197961163    
  0.78720901612062168E-08  0.11404450486040630E-06
  0.35149294825502581     -0.94839418262540123E-01
 -0.65795187826713342     -0.25903540592034840    
 -0.49715815178234291      0.34683131753184371    
  0.87682435178533413E-08 -0.71910813441476654E-07
  0.35149298545758156     -0.94839370016817123E-01
  0.65795183896795495      0.25903544537978079    
  0.12103695078622831     -0.36732882587042720    
  0.70250703265240511     -0.57906565790685538    
 -0.82083444358415081E-01  0.12185537041139330    
 -0.40389189385312789E-07  0.55080923800480685E-10
[...]
  0.97663168262289812     -0.12857607657194700    
 -0.22819520313111716E-01 -0.29739024622358657E-01
  0.57089762642301639E-02 -0.75150492735637036E-03
 -0.17998076804084214E-01  0.13810349072047510E-01
  0.14978271238744458E-01 -0.36160813695152089E-01
  0.98637070352607248     -0.12985825412999566    
  0.14978269857250329E-01 -0.36160778168098588E-01
  0.62350414398627237E-02  0.47359836057567738E-01
  0.57086994765439764E-02 -0.75146400187061778E-03
 -0.22819423860481552E-01 -0.29738888375815925E-01
  0.97663148752416185     -0.12857596682462530    
 -0.17997919711323543E-01  0.13810277315667353E-01
  0.19096086005164180E-01  0.24886481962938706E-01
 -0.16213473983390372E-01  0.39142777890299782E-01
  0.19096136915125406E-01  0.24886490872701558E-01
  0.91771482528519133      0.38012987343746490    
  0.87157175628471495     -0.36101696074434536    
 -0.26415032601244125E-01 -0.20268923081857220E-01
  0.74906317351237373E-01 -0.31027115615892643E-01
  0.17620964108019440E-01 -0.22964075670769097E-01
  0.28824071509338481E-01 -0.37564291396996179E-01
  0.98323275542028854      0.12944502830110144    
 -0.23033998902481621E-01  0.30018590093878375E-01
 -0.58837854717400870E-02  0.44692155172887715E-01
  0.46652999591336258E-01  0.61421760552881179E-02
  0.12192493657864376E-01  0.29435262712359613E-01
  0.91056435706021166      0.11987799296652536    
 -0.10688417950281312E-01  0.44272182283530111E-02
 -0.27459374760012444E-01 -0.21070293346147077E-01
 -0.59051482128865363E-02  0.44853615049909736E-01
  0.22629851665251968E-01  0.17364380971697513E-01
  0.98263978531173568      0.12936706230004455    
  0.91056322175835613      0.11987830891475175    
  0.12192526711370857E-01  0.29435198243469275E-01
  0.46653919213506936E-01  0.61419103968205655E-02
 -0.10688294189014196E-01  0.44270453101767854E-02
 -0.23034179875726094E-01  0.30018613346685531E-01
  0.98323272093732261      0.12944508768922028    
  0.28824125881244864E-01 -0.37564337452142237E-01
 -0.58838289385950418E-02  0.44692100345279623E-01
  0.74907202801161629E-01 -0.31027704721106358E-01
 -0.26414919669370523E-01 -0.20268901697419663E-01
  0.87157109193841475     -0.36101636722704800    
  0.17620867326845598E-01 -0.22963936443861736E-01
  0.22630031727993268E-01  0.17364362281756307E-01
 -0.59051038476125115E-02  0.44853584736343780E-01
 -0.27459457139425422E-01 -0.21070327995707724E-01
  0.98263970803590239      0.12936718211429016    
  0.98404276692372283      0.12955154000110636    
 -0.12211323776798752E-01 -0.29480809969470924E-01
  0.13219352588295365E-03  0.17614329059491513E-04
 -0.25053152554226066E-01  0.10377439426745289E-01
  0.45438429336976021E-02 -0.34513872498111629E-01
  0.92086489530959370     -0.38143483330372935    
  0.45438207193853088E-02 -0.34513915415920728E-01
 -0.13454369546899148E-01 -0.32481686501923068E-01
  0.13230819064968775E-03  0.17305630614316403E-04
 -0.12211363067408512E-01 -0.29480782404147584E-01
  0.98404252252284985      0.12955153472005823    
 -0.25053092038160519E-01  0.10377497838736753E-01
  0.24590082863241408E-01  0.18868839624543676E-01
  0.51654338133619139E-02 -0.39235313645413189E-01
  0.24590282851115919E-01  0.18868802413713855E-01
  0.98431208613156129      0.12958679335687479    
  0.97380796728215224     -0.12820412812058793    
  0.17371463759896021E-01  0.22638901035843675E-01
  0.87433067741954987E-02 -0.11511411112816285E-02
  0.25647567529716479E-01 -0.19680074182384155E-01
 -0.16381544492914017E-01  0.12569932145970649E-01
  0.91830952797153120      0.38037638003496310    
 -0.16381576044817527E-01  0.12570011609368954E-01
 -0.17985288940661946E-01  0.43420356746139033E-01
  0.87434668417577729E-02 -0.11510880308072703E-02
  0.17371466471135803E-01  0.22638851614992246E-01
  0.97380814841960339     -0.12820416878870763    
  0.25647378878344819E-01 -0.19679979002511103E-01
 -0.27524324902715731E-01 -0.11400948334000462E-01
  0.56320408280702535E-02  0.42779794939417123E-01
 -0.27524204187311625E-01 -0.11400962950027198E-01
  0.98627904205513817     -0.12984597701297482    
  0.82175050058152921      0.34038041160783700    
  0.68484798016747806E-02  0.52019303336468051E-01
  0.55410983150015476E-01  0.22951515331685456E-01
  0.63840625833974110E-01 -0.84045369574626185E-02
 -0.21040445576047586E-01  0.50796201754158936E-01
  0.98584320172535811     -0.12978873082015330    
  0.16862470247755529E-01 -0.40709557277542822E-01
 -0.59515911727488126E-02 -0.45206141692754706E-01
  0.73276528406439473E-01 -0.96473025817334860E-02
 -0.22520442527368647E-01 -0.29349219161813170E-01
  0.92262498474416899     -0.12146552574596418    
 -0.59763771131246214E-02  0.45857671021180537E-02
  0.55205196017205312E-01  0.22866749590217051E-01
 -0.63052602519750216E-02 -0.47893321557540537E-01
 -0.13436010203308283E-01 -0.55652175029895527E-02
  0.92963534137003312     -0.12238898291347335    
  0.92262565801110319     -0.12146626702461492    
 -0.22520467240922739E-01 -0.29349212050653092E-01
  0.73275233124864031E-01 -0.96462504206016597E-02
 -0.59759942510848926E-02  0.45850772448459212E-02
  0.16862426878043759E-01 -0.40709533979860213E-01
  0.98584321066123881     -0.12978871686581950    
 -0.21040500456017120E-01  0.50796100584127091E-01
 -0.59513654973774406E-02 -0.45206158925391669E-01
  0.55410097047830807E-01  0.22951932188597667E-01
  0.68484399119158254E-02  0.52019296249750623E-01
  0.82175177663821763      0.34038057627748669    
  0.63839874929618234E-01 -0.84047853987041996E-02
 -0.13435900513814474E-01 -0.55652996068066389E-02
 -0.63052799855703792E-02 -0.47893324332548261E-01
  0.55205390528317147E-01  0.22866363707363131E-01
  0.92963540378281140     -0.12238835699056876    
  0.91287093075715509      0.12018185930164206    
  0.17658042606712273E-01  0.42630459779470484E-01
  0.17023942555021963E-01  0.22407013813512729E-02
  0.57211936445029574E-01 -0.23697427848635169E-01
 -0.24292234067441361E-01  0.31658254653377176E-01
  0.98585920822760631      0.12979085074125937    
 -0.24292246421060502E-01  0.31658255840065867E-01
  0.63162594920043004E-02 -0.47976534522320188E-01
  0.17022966911031216E-01  0.22412105452950053E-02
  0.17658081665945964E-01  0.42630398671865875E-01
  0.91287042068356261      0.12018171221450752    
  0.57212754059531967E-01 -0.23698458884531214E-01
  0.41147124283417137E-01  0.54169369045401526E-02
 -0.22948110839333440E-01 -0.55401750406253510E-01
  0.41146479230992052E-01  0.54175580692948609E-02
  0.84147059740041830     -0.34854886874976732    
  0.97380795947612631     -0.12820417331530928    
 -0.27524268000156133E-01 -0.11400877888543553E-01
  0.87435351826698985E-02 -0.11511020753592039E-02
 -0.16381645647765741E-01  0.12569964371741385E-01
  0.25647497676653867E-01 -0.19679953763589692E-01
  0.98627903392737826     -0.12984611797776863    
  0.25647416349106250E-01 -0.19680032062610282E-01
 -0.17985318977792486E-01  0.43420348114349326E-01
  0.87433398248264200E-02 -0.11512135053529044E-02
 -0.27524221152575697E-01 -0.11400967690274403E-01
  0.97380804708112589     -0.12820426221639952    
 -0.16381463004688478E-01  0.12570040416847072E-01
  0.17371509916544896E-01  0.22638938005132545E-01
  0.56320903146598929E-02  0.42779801155798360E-01
  0.17371343668896793E-01  0.22638844758628183E-01
  0.91830960076660917      0.38037626056645135    
  0.81390224951988710     -0.33712934386462545    
  0.56061464839079221E-01  0.73806290313984460E-02
  0.60580532992977894E-01 -0.25093298502586618E-01
  0.30641228295656093E-01 -0.39932307606154613E-01
  0.60516867923117633E-01 -0.25067108203316507E-01
  0.93731291181450327      0.12339951847519848    
 -0.15069306567327854E-01  0.62422022453875632E-02
 -0.32223800003362939E-01  0.41994807479949249E-01
  0.83208025886315068E-01  0.10954735134086967E-01
 -0.12672024075873320E-01 -0.97234857602836733E-02
  0.91868665252279880      0.12094709670491030    
 -0.20293131638640848E-01  0.84056230499473319E-02
 -0.38480168241203802E-01 -0.29526970528754179E-01
  0.19719884137100917E-01  0.47608032956515674E-01
  0.23500221076953650E-01  0.18032427487443391E-01
  0.98309510775229936      0.12942694817523942    
  0.91868631118960375      0.12094748696651471    
 -0.12672298684380729E-01 -0.97238733729612357E-02
  0.83208871492142220E-01  0.10954521127388345E-01
 -0.20293206418890316E-01  0.84056941398699247E-02
 -0.15069491608469130E-01  0.62420660490641764E-02
  0.93731295421369487      0.12339969143605491    
  0.60516949522035499E-01 -0.25067156179838190E-01
 -0.32223824015109266E-01  0.41994892833912056E-01
  0.60580641977698829E-01 -0.25093566962115111E-01
  0.56061840225253186E-01  0.73806224974466358E-02
  0.81390171483336582     -0.33712883008567818    
  0.30641286714145059E-01 -0.39932496448526894E-01
  0.23500394479889927E-01  0.18032516610200007E-01
  0.19719906859896358E-01  0.47608086202288229E-01
 -0.38480351445790054E-01 -0.29527075181978817E-01
  0.98309506356134702      0.12942696940860088    
  0.97380796728215258      0.12820412812058793    
 -0.16381544492913978E-01 -0.12569932145970616E-01
  0.87434668417576654E-02  0.11510880308072148E-02
 -0.27524324902715815E-01  0.11400948334000488E-01
  0.17371463759895987E-01 -0.22638901035843706E-01
  0.91830952797153176     -0.38037638003496294    
  0.17371466471135771E-01 -0.22638851614992239E-01
  0.56320408280703090E-02 -0.42779794939417123E-01
  0.87433067741956322E-02  0.11511411112816560E-02
 -0.16381576044817533E-01 -0.12570011609368948E-01
  0.97380814841960350      0.12820416878870747    
 -0.27524204187311635E-01  0.11400962950027252E-01
  0.25647567529716520E-01  0.19680074182384245E-01
 -0.17985288940661925E-01 -0.43420356746139095E-01
  0.25647378878344718E-01  0.19679979002511162E-01
  0.98627904205513817      0.12984597701297498    
  0.90937100301266394     -0.11972088072308200    
  0.51539229053040939E-01  0.21348217633306490E-01
  0.20258413859817886E-01 -0.26672031439203508E-02
  0.32569622241439104E-01 -0.24991460436790833E-01
  0.43912897048969238E-01 -0.57812421179808801E-02
  0.84609874776838889      0.35046577968072107    
  0.43913062257507504E-01 -0.57815204301577385E-02
 -0.45664480790539266E-01  0.35039573948765765E-01
  0.20258307295929562E-01 -0.26672228107576753E-02
  0.51539411921268714E-01  0.21348199274435306E-01
  0.90937077981207248     -0.11972066798989235    
  0.32569700464978799E-01 -0.24991619034198321E-01
 -0.28499172105226227E-01 -0.11804701358421779E-01
  0.27617065860034103E-01  0.35991215057500706E-01
 -0.28499241037181273E-01 -0.11804718131101989E-01
  0.98310027677926271     -0.12942760965099795    
  0.81390204730808813      0.33712927539149284    
  0.30641189752679002E-01  0.39932426693061830E-01
  0.60580583617565791E-01  0.25093304593874443E-01
  0.56061580314939172E-01 -0.73806903098938594E-02
 -0.38480327686730889E-01  0.29527024740802685E-01
  0.98309507872079926     -0.12942696806512474    
  0.23500357456680308E-01 -0.18032444005258122E-01
  0.19719931937587778E-01 -0.47608088333267663E-01
  0.83208391413589725E-01 -0.10954756081745244E-01
 -0.20293103955287231E-01 -0.84056778756781674E-02
  0.91868643508477366     -0.12094730776642752    
 -0.12672113183449374E-01  0.97237220424610284E-02
  0.60516872367448481E-01  0.25067036752852524E-01
 -0.32223804887187235E-01 -0.41994880335613785E-01
 -0.15069304507054722E-01 -0.62420384922428265E-02
  0.93731292644799946     -0.12339961382769808    
  0.91868671046431127     -0.12094763851374871    
 -0.20293114128554238E-01 -0.84056446294436815E-02
  0.83207498507028577E-01 -0.10954604392737641E-01
 -0.12671390495567937E-01  0.97235344770377242E-02
  0.23500312988822235E-01 -0.18032496438486506E-01
  0.98309506860347473     -0.12942698606217917    
 -0.38480041477112766E-01  0.29527093741796788E-01
  0.19719740715730297E-01 -0.47607982753510490E-01
  0.60580234909883061E-01  0.25093533368580254E-01
  0.30641177055801612E-01  0.39932456897446289E-01
  0.81390245467991795      0.33712930587923101    
  0.56061347460250960E-01 -0.73809321748552655E-02
 -0.15069348470769923E-01 -0.62421398299998968E-02
 -0.32223833250596662E-01 -0.41994914593437294E-01
  0.60517203373578791E-01  0.25067116511058259E-01
  0.93731264243536760     -0.12339949262866895    
  0.90937078041743424      0.11972084713180384    
  0.32569747455179272E-01  0.24991651304083852E-01
  0.20257854864209075E-01  0.26673691395504113E-02
  0.51539554376457783E-01 -0.21348656564128682E-01
 -0.28499232364254404E-01  0.11804802394755273E-01
  0.98310027853791149      0.12942763604991109    
 -0.28499063751590423E-01  0.11804691016075218E-01
  0.27616988486283762E-01 -0.35991219467849771E-01
  0.20258288555319734E-01  0.26671459722643204E-02
  0.32569582635235038E-01  0.24991490779003488E-01
  0.90937103391697960      0.11972059836937163    
  0.51539459789327273E-01 -0.21348052740907335E-01
  0.43913246626648070E-01  0.57812671271688662E-02
 -0.45664544595068877E-01 -0.35039627944084523E-01
  0.43913176998194914E-01  0.57812263567378315E-02
  0.84609849246934021     -0.35046546183860922    
  0.97993967886065381     -0.12901137955118183    
  0.22559801161807251E-02 -0.29699381100973729E-03
  0.22561258897673096E-02 -0.29697843621091005E-03
 -0.20266641868621534E-01  0.15551000921925007E-01
  0.22558442721026706E-02 -0.29710415220237865E-03
  0.97993957999683468     -0.12901142411428224    
  0.22558478669629177E-02 -0.29708248045090101E-03
 -0.20266360312707961E-01  0.15551011574873930E-01
  0.22560186258761454E-02 -0.29693323994847817E-03
  0.22560189641586824E-02 -0.29705427739393090E-03
  0.97993966745899530     -0.12901144193716438    
 -0.20266561316268236E-01  0.15551045471048386E-01
  0.19324317041868079E-01  0.25183814701262439E-01
  0.19324263279181311E-01  0.25183846405265248E-01
  0.19324191652593387E-01  0.25183820428516180E-01
  0.91654293314644175      0.37964455870185099    
  0.84609884930559842     -0.35046554249261136    
  0.51539379084140621E-01 -0.21348376716964056E-01
  0.51539310515300335E-01 -0.21348184315317670E-01
  0.27616952884148477E-01 -0.35991204482428450E-01
  0.43913165228152584E-01  0.57813671555461852E-02
  0.90937072607088665      0.11972092747664163    
  0.20258386121984488E-01  0.26670045677658037E-02
 -0.28499098069901693E-01  0.11804736374915113E-01
  0.43912672309863218E-01  0.57811077943850236E-02
  0.20258392676212520E-01  0.26671295888235627E-02
  0.90937105309768962      0.11972099731286417    
 -0.28499196887697975E-01  0.11804752513150701E-01
 -0.45664331947013213E-01 -0.35039506932851613E-01
  0.32569643688145036E-01  0.24991526736316490E-01
  0.32569489058144253E-01  0.24991454430339167E-01
  0.98310028927669435      0.12942767514879255    
  0.90937084559656811      0.11972076797724991    
  0.20258342164714113E-01  0.26670469525669244E-02
  0.43912993435733412E-01  0.57813781045586406E-02
 -0.28499139961997912E-01  0.11804851616965387E-01
  0.20258372223917277E-01  0.26673092607650156E-02
  0.90937067953622008      0.11972104026088530    
  0.43913255925147131E-01  0.57810665176334080E-02
 -0.28499247595097692E-01  0.11804556749007362E-01
  0.51539275617874809E-01 -0.21348274652868347E-01
  0.51539462517147035E-01 -0.21348428028826905E-01
  0.84609868219563011     -0.35046539493016443    
  0.27617046672283412E-01 -0.35991229853629535E-01
  0.32569715321862737E-01  0.24991516167677686E-01
  0.32569618109766857E-01  0.24991541691799912E-01
 -0.45664498399314843E-01 -0.35039581034151369E-01
  0.98310025771899334      0.12942772665164937    
  0.90937100301266371      0.11972088072308194    
  0.43912897048969196E-01  0.57812421179808705E-02
  0.20258307295929562E-01  0.26672228107577300E-02
 -0.28499172105226324E-01  0.11804701358421790E-01
  0.51539229053040848E-01 -0.21348217633306524E-01
  0.84609874776838878     -0.35046577968072118    
  0.51539411921268763E-01 -0.21348199274435271E-01
  0.27617065860034106E-01 -0.35991215057500657E-01
  0.20258413859817834E-01  0.26672031439202936E-02
  0.43913062257507435E-01  0.57815204301576821E-02
  0.90937077981207282      0.11972066798989227    
 -0.28499241037181346E-01  0.11804718131102001E-01
  0.32569622241439153E-01  0.24991460436790795E-01
 -0.45664480790539252E-01 -0.35039573948765862E-01
  0.32569700464978861E-01  0.24991619034198342E-01
  0.98310027677926326      0.12942760965099789    
  0.91705570566944483      0.12073266444719270    
  0.60848739607759278E-02  0.80102481048715017E-03
  0.60844962323554578E-02  0.80113921804688532E-03
  0.62418954058485236E-01 -0.25854778132139485E-01
  0.60851077836659622E-02  0.80097059293005642E-03
  0.91705566824509521      0.12073259697822122    
  0.60847515238931435E-02  0.80090484875226049E-03
  0.62418718341923994E-01 -0.25854370420347130E-01
  0.60845240094739893E-02  0.80095054273286422E-03
  0.60846344440399561E-02  0.80112831221087794E-03
  0.91705584587895550      0.12073280094279715    
  0.62418957663239252E-01 -0.25854716486774152E-01
  0.40898321245554141E-01  0.53846404544115765E-02
  0.40898540679538256E-01  0.53844709878930743E-02
  0.40898653792518655E-01  0.53844701741639234E-02
  0.78962139076390681     -0.32707225819674468    
  0.74548853497482515      0.30879146826032422    
  0.85191954452014412E-01  0.35287699367197056E-01
  0.85191868100162244E-01  0.35287551332249430E-01
  0.42736438880119201E-01 -0.56263213375576703E-02
  0.55816417871059058E-01 -0.73483585218416655E-02
  0.93454452134038513     -0.12303516730624807    
 -0.15061703572974292E-01  0.19829190164978062E-02
  0.16422345456848002E-01 -0.12601349838196333E-01
  0.55816536683098328E-01 -0.73483845793245696E-02
 -0.15061792201017091E-01  0.19830203676054190E-02
  0.93454452507467245     -0.12303501459795163    
  0.16422303639926132E-01 -0.12601405800225684E-01
  0.87049549201681370E-01  0.36057077358860254E-01
 -0.41119530624031467E-01 -0.17032202441062572E-01
 -0.41119244733855115E-01 -0.17032318242536235E-01
  0.93661190655669879     -0.12330711322777575    
  0.93454458213373737     -0.12303480997456562    
 -0.15061557567676187E-01  0.19829566483353881E-02
  0.55816006588267950E-01 -0.73487454398081927E-02
  0.16422661947509288E-01 -0.12601316677887369E-01
 -0.15061669763206827E-01  0.19829581289868550E-02
  0.93454460844575671     -0.12303537967392957    
  0.55816392877761925E-01 -0.73480407011763975E-02
  0.16422165592546788E-01 -0.12601416726255964E-01
  0.85191877880730904E-01  0.35287523611631871E-01
  0.85191728651019163E-01  0.35287781263636075E-01
  0.74548866785494228      0.30879155422682991    
  0.42736476206506037E-01 -0.56264018562152277E-02
 -0.41119312735560215E-01 -0.17032219056622111E-01
 -0.41119388554159135E-01 -0.17032203904980312E-01
  0.87049598862663211E-01  0.36057065880196484E-01
  0.93661174308954886     -0.12330724544604331    
  0.93454437886068042     -0.12303513549375328    
  0.55816765768064908E-01 -0.73484304169493513E-02
 -0.15061713310456639E-01  0.19829570132643450E-02
  0.16422181937109523E-01 -0.12601195157566412E-01
  0.85192274620197059E-01  0.35287713629310435E-01
  0.74548822991998975      0.30879160075914897    
  0.85191907467048730E-01  0.35287602232070760E-01
  0.42736358780826371E-01 -0.56264783824612344E-02
 -0.15061837268373849E-01  0.19829607805672157E-02
  0.55816370103766597E-01 -0.73486883676075736E-02
  0.93454454675397003     -0.12303496021118498    
  0.16422575962571229E-01 -0.12601198510255764E-01
 -0.41119500285107427E-01 -0.17032252937842388E-01
  0.87049394247089074E-01  0.36057178724061376E-01
 -0.41119293562789809E-01 -0.17032232934714512E-01
  0.93661200589126115     -0.12330734953814192    
  0.67881606839088726     -0.67881620576379598     -0.67881621846477314    
 -0.67881640496847584     -0.67881633218149573      0.67881628058581878    
 -0.67881626355061808      0.67881630217692868     -0.67881618178083802    
  0.67881608911316982      0.67881605285973090      0.67881623879513220    
   1.9291789239559392    
   1.9291789959111603    
   1.9291788335828866    
   1.9291788667547383    
