       #
       # Generated by the Wannier90 code http://www.wannier.org
       # On 15Jun2023 at 10:39:46 
       #
CRYSTAL
PRIMVEC
   0.0000000   2.7152650   2.7152650
   2.7152650   0.0000000   2.7152650
   2.7152650   2.7152650   0.0000000
CONVVEC
   0.0000000   2.7152650   2.7152650
   2.7152650   0.0000000   2.7152650
   2.7152650   2.7152650   0.0000000
PRIMCOORD
     2  1
Si      0.0000000   0.0000000   0.0000000
Si      1.3576325   1.3576325   1.3576325


BEGIN_BLOCK_DATAGRID_3D
3D_field
BEGIN_DATAGRID_3D_UNKNOWN
    52    52    52
  -11.278793  -11.278793  -11.278793
   0.0000000  10.6521935  10.6521935
  10.6521935   0.0000000  10.6521935
  10.6521935  10.6521935   0.0000000
 -0.46819E-03 -0.34235E-03 -0.48539E-04  0.42891E-03  0.67272E-03  0.64536E-03
  0.46326E-03  0.21520E-03 -0.13711E-03 -0.48309E-03 -0.95311E-03 -0.13805E-02
 -0.16142E-02 -0.14165E-02 -0.10639E-02 -0.59423E-03 -0.14641E-03  0.94241E-04
  0.24090E-04 -0.26037E-03 -0.67439E-03 -0.11916E-02 -0.18307E-02 -0.25416E-02
 -0.32548E-02 -0.37098E-02 -0.32330E-02 -0.26017E-02 -0.70167E-03  0.88078E-03
  0.15269E-02  0.14388E-02  0.97813E-03  0.51239E-03  0.10787E-03 -0.18005E-03
 -0.36822E-03 -0.43299E-03 -0.34579E-03 -0.42466E-04  0.10226E-04 -0.26051E-03
 -0.87543E-03 -0.11809E-02 -0.12616E-02 -0.12295E-02 -0.12764E-02 -0.14292E-02
 -0.16241E-02 -0.19105E-02 -0.22082E-02 -0.21778E-02 -0.34235E-03 -0.22433E-03
  0.19490E-03  0.66416E-03  0.76940E-03  0.65769E-03  0.44355E-03  0.13346E-03
 -0.22612E-03 -0.60208E-03 -0.10469E-02 -0.13793E-02 -0.14617E-02 -0.10344E-02
 -0.69897E-03 -0.24063E-03  0.10202E-03  0.17798E-03  0.80659E-05 -0.30820E-03
 -0.74166E-03 -0.12523E-02 -0.18179E-02 -0.24031E-02 -0.29292E-02 -0.29567E-02
 -0.19816E-02 -0.12923E-02  0.86993E-04  0.92294E-03  0.11318E-02  0.89618E-03
  0.47627E-03  0.11151E-03 -0.20790E-03 -0.43095E-03 -0.54695E-03 -0.56360E-03
 -0.48821E-03 -0.18777E-03 -0.13466E-03 -0.45573E-03 -0.92475E-03 -0.11251E-02
 -0.11423E-02 -0.11520E-02 -0.12489E-02 -0.14200E-02 -0.16272E-02 -0.19395E-02
 -0.21973E-02 -0.20428E-02 -0.48513E-04  0.19492E-03  0.77674E-03  0.98449E-03
  0.90060E-03  0.67757E-03  0.33695E-03 -0.42798E-04 -0.42688E-03 -0.79378E-03
 -0.10382E-02 -0.11395E-02 -0.77721E-03 -0.30000E-04  0.29830E-03  0.71158E-03
  0.73675E-03  0.51035E-03  0.15574E-03 -0.31941E-03 -0.85154E-03 -0.13007E-02
 -0.17004E-02 -0.19459E-02 -0.18013E-02 -0.90424E-03  0.45470E-03  0.10384E-02
  0.17173E-02  0.17440E-02  0.13426E-02  0.75889E-03  0.19197E-03 -0.29871E-03
 -0.65607E-03 -0.84743E-03 -0.91770E-03 -0.98367E-03 -0.87597E-03 -0.67218E-03
 -0.63909E-03 -0.94832E-03 -0.12092E-02 -0.12052E-02 -0.11722E-02 -0.11892E-02
 -0.12728E-02 -0.14339E-02 -0.16503E-02 -0.19065E-02 -0.19680E-02 -0.15246E-02
  0.42893E-03  0.66418E-03  0.98449E-03  0.10080E-02  0.83735E-03  0.51913E-03
  0.13423E-03 -0.24592E-03 -0.58436E-03 -0.75566E-03 -0.78838E-03 -0.50462E-03
  0.11879E-03  0.80905E-03  0.10238E-02  0.11482E-02  0.94944E-03  0.57895E-03
  0.10284E-03 -0.43408E-03 -0.86503E-03 -0.11440E-02 -0.12145E-02 -0.94215E-03
 -0.24051E-03  0.85246E-03  0.18144E-02  0.20715E-02  0.20357E-02  0.15589E-02
  0.86357E-03  0.16099E-03 -0.46959E-03 -0.90216E-03 -0.11045E-02 -0.11576E-02
 -0.11762E-02 -0.11448E-02 -0.98704E-03 -0.90713E-03 -0.84668E-03 -0.10026E-02
 -0.10518E-02 -0.10082E-02 -0.96335E-03 -0.98100E-03 -0.10975E-02 -0.12190E-02
 -0.13629E-02 -0.14965E-02 -0.13658E-02 -0.77388E-03  0.67271E-03  0.76940E-03
  0.90059E-03  0.83733E-03  0.61960E-03  0.30700E-03 -0.81034E-04 -0.38548E-03
 -0.53409E-03 -0.51889E-03 -0.29392E-03  0.17159E-03  0.70821E-03  0.11399E-02
  0.12014E-02  0.11285E-02  0.84920E-03  0.42953E-03 -0.43413E-04 -0.46553E-03
 -0.71990E-03 -0.69791E-03 -0.41437E-03  0.10774E-03  0.86909E-03  0.16205E-02
  0.19223E-02  0.18653E-02  0.14275E-02  0.70125E-03 -0.93458E-04 -0.76698E-03
 -0.12121E-02 -0.14019E-02 -0.13628E-02 -0.12247E-02 -0.10986E-02 -0.97419E-03
 -0.87570E-03 -0.84656E-03 -0.75704E-03 -0.71745E-03 -0.65185E-03 -0.54221E-03
 -0.48830E-03 -0.52244E-03 -0.57253E-03 -0.66450E-03 -0.79194E-03 -0.90708E-03
 -0.69998E-03 -0.28453E-03  0.64532E-03  0.65767E-03  0.67753E-03  0.51907E-03
  0.30696E-03 -0.21672E-04 -0.30627E-03 -0.40357E-03 -0.35273E-03 -0.16853E-03
  0.15191E-03  0.54439E-03  0.89424E-03  0.10134E-02  0.99411E-03  0.83563E-03
  0.52449E-03  0.14003E-03 -0.22057E-03 -0.46498E-03 -0.42964E-03 -0.13494E-03
  0.22616E-03  0.75718E-03  0.12404E-02  0.14445E-02  0.12329E-02  0.10000E-02
  0.28811E-03 -0.55414E-03 -0.12677E-02 -0.16826E-02 -0.17824E-02 -0.15904E-02
 -0.12045E-02 -0.89370E-03 -0.67944E-03 -0.61597E-03 -0.54579E-03 -0.49361E-03
 -0.36986E-03 -0.21505E-03 -0.65745E-04  0.13128E-03  0.23817E-03  0.28804E-03
  0.13364E-03 -0.49335E-04 -0.29413E-03 -0.39994E-03 -0.33129E-03 -0.10290E-03
  0.46319E-03  0.44349E-03  0.33687E-03  0.13414E-03 -0.81121E-04 -0.30632E-03
 -0.36647E-03 -0.27640E-03 -0.11051E-03  0.12973E-03  0.39788E-03  0.64450E-03
  0.72353E-03  0.67672E-03  0.63061E-03  0.38558E-03  0.77221E-04 -0.21026E-03
 -0.37073E-03 -0.32076E-03 -0.27647E-04  0.25635E-03  0.59297E-03  0.87039E-03
  0.92003E-03  0.69530E-03  0.15706E-03 -0.21050E-03 -0.10682E-02 -0.18315E-02
 -0.22816E-02 -0.22436E-02 -0.18140E-02 -0.11247E-02 -0.63123E-03 -0.30253E-03
 -0.18016E-03 -0.12888E-03 -0.73687E-04  0.33975E-04  0.14044E-03  0.30397E-03
  0.59811E-03  0.89623E-03  0.10750E-02  0.96232E-03  0.71780E-03  0.37358E-03
  0.47707E-04 -0.14388E-03 -0.21372E-03 -0.13424E-03  0.21511E-03  0.13337E-03
 -0.42913E-04 -0.24605E-03 -0.38560E-03 -0.40364E-03 -0.27642E-03 -0.85193E-04
  0.12848E-03  0.29875E-03  0.43477E-03  0.46579E-03  0.41302E-03  0.22027E-03
  0.13281E-03 -0.12840E-03 -0.37598E-03 -0.48313E-03 -0.36859E-03 -0.65462E-04
  0.22163E-03  0.47273E-03  0.58210E-03  0.50266E-03  0.24491E-03 -0.29750E-03
 -0.10683E-02 -0.14895E-02 -0.22843E-02 -0.27960E-02 -0.27114E-02 -0.20166E-02
 -0.10335E-02 -0.25667E-03  0.16571E-03  0.36965E-03  0.37567E-03  0.33230E-03
  0.29266E-03  0.44318E-03  0.50000E-03  0.80448E-03  0.12211E-02  0.15411E-02
  0.16080E-02  0.13612E-02  0.95936E-03  0.44219E-03  0.84108E-04 -0.21290E-03
 -0.34039E-03 -0.44926E-03 -0.13722E-03 -0.22623E-03 -0.42702E-03 -0.58450E-03
 -0.53420E-03 -0.35279E-03 -0.11053E-03  0.12848E-03  0.26928E-03  0.33708E-03
  0.31322E-03  0.19946E-03 -0.24063E-04 -0.35403E-03 -0.40588E-03 -0.64866E-03
 -0.76228E-03 -0.59923E-03 -0.24798E-03  0.10642E-03  0.36432E-03  0.44264E-03
  0.27220E-03 -0.21652E-04 -0.59543E-03 -0.13767E-02 -0.22399E-02 -0.26153E-02
 -0.31750E-02 -0.31339E-02 -0.22638E-02 -0.96051E-03  0.15211E-03  0.83155E-03
  0.10796E-02  0.99869E-03  0.79628E-03  0.58488E-03  0.57488E-03  0.71968E-03
  0.76668E-03  0.11399E-02  0.15147E-02  0.17985E-02  0.16799E-02  0.12401E-02
  0.70014E-03  0.21757E-03 -0.19623E-03 -0.47938E-03 -0.70084E-03 -0.83967E-03
 -0.48322E-03 -0.60221E-03 -0.79393E-03 -0.75580E-03 -0.51898E-03 -0.16856E-03
  0.12973E-03  0.29875E-03  0.33708E-03  0.28344E-03  0.78841E-04 -0.19400E-03
 -0.57565E-03 -0.91193E-03 -0.96764E-03 -0.11625E-02 -0.96748E-03 -0.55499E-03
 -0.40056E-04  0.31311E-03  0.39637E-03  0.23000E-03 -0.12835E-03 -0.73615E-03
 -0.15344E-02 -0.24308E-02 -0.32777E-02 -0.35554E-02 -0.36263E-02 -0.26879E-02
 -0.99759E-03  0.67816E-03  0.17554E-02  0.20958E-02  0.18642E-02  0.14516E-02
  0.10167E-02  0.74680E-03  0.62977E-03  0.73661E-03  0.75225E-03  0.11306E-02
  0.15285E-02  0.16125E-02  0.12848E-02  0.78222E-03  0.28622E-03 -0.20259E-03
 -0.57409E-03 -0.89620E-03 -0.11816E-02 -0.14239E-02 -0.95324E-03 -0.10471E-02
 -0.10384E-02 -0.78850E-03 -0.29398E-03  0.15190E-03  0.39791E-03  0.43479E-03
  0.31322E-03  0.78834E-04 -0.25795E-03 -0.68073E-03 -0.11487E-02 -0.15698E-02
 -0.15768E-02 -0.14725E-02 -0.97087E-03 -0.26908E-03  0.33297E-03  0.49434E-03
  0.32735E-03 -0.64106E-04 -0.72347E-03 -0.15187E-02 -0.24603E-02 -0.34676E-02
 -0.41983E-02 -0.42238E-02 -0.34238E-02 -0.13932E-02  0.11666E-02  0.30380E-02
  0.35978E-02  0.31870E-02  0.24879E-02  0.16968E-02  0.10123E-02  0.50940E-03
  0.29604E-03  0.41527E-03  0.42897E-03  0.93541E-03  0.12377E-02  0.10895E-02
  0.63175E-03  0.10926E-03 -0.36446E-03 -0.74216E-03 -0.11079E-02 -0.15085E-02
 -0.18859E-02 -0.22280E-02 -0.13806E-02 -0.13795E-02 -0.11396E-02 -0.50472E-03
  0.17158E-03  0.54442E-03  0.64454E-03  0.46581E-03  0.19945E-03 -0.19401E-03
 -0.68074E-03 -0.12508E-02 -0.18246E-02 -0.21502E-02 -0.19920E-02 -0.15224E-02
 -0.57748E-03  0.33646E-03  0.73614E-03  0.62929E-03  0.19331E-03 -0.50156E-03
 -0.13326E-02 -0.22925E-02 -0.34096E-02 -0.43776E-02 -0.47012E-02 -0.43580E-02
 -0.24605E-02  0.10869E-02  0.43640E-02  0.56675E-02  0.51963E-02  0.40304E-02
  0.27160E-02  0.14943E-02  0.53648E-03 -0.12129E-03 -0.38909E-03 -0.22611E-03
 -0.94931E-04  0.60497E-03  0.72974E-03  0.18995E-03 -0.36705E-03 -0.74518E-03
 -0.10479E-02 -0.13741E-02 -0.17805E-02 -0.22428E-02 -0.28014E-02 -0.32221E-02
 -0.16143E-02 -0.14618E-02 -0.77730E-03  0.11878E-03  0.70826E-03  0.89429E-03
  0.72356E-03  0.41303E-03 -0.24076E-04 -0.57567E-03 -0.11487E-02 -0.18246E-02
 -0.23323E-02 -0.23904E-02 -0.20091E-02 -0.95764E-03  0.33434E-03  0.10841E-02
  0.11473E-02  0.67982E-03 -0.91420E-04 -0.95352E-03 -0.19297E-02 -0.30049E-02
 -0.40641E-02 -0.47671E-02 -0.45829E-02 -0.37362E-02 -0.35456E-04  0.49680E-02
  0.78797E-02  0.78731E-02  0.62330E-02  0.41979E-02  0.23375E-02  0.83150E-03
 -0.36876E-03 -0.12296E-02 -0.15736E-02 -0.10328E-02 -0.63873E-03  0.13380E-03
 -0.34344E-03 -0.10804E-02 -0.13257E-02 -0.14652E-02 -0.16453E-02 -0.19824E-02
 -0.24360E-02 -0.31456E-02 -0.38963E-02 -0.43015E-02 -0.14165E-02 -0.10344E-02
 -0.29976E-04  0.80910E-03  0.11399E-02  0.10135E-02  0.67672E-03  0.22024E-03
 -0.35407E-03 -0.91196E-03 -0.15698E-02 -0.21502E-02 -0.23905E-02 -0.18899E-02
 -0.12099E-02  0.25048E-03  0.14042E-02  0.17416E-02  0.13274E-02  0.49248E-03
 -0.42808E-03 -0.13893E-02 -0.23822E-02 -0.32584E-02 -0.39666E-02 -0.40375E-02
 -0.27264E-02 -0.98129E-03  0.43559E-02  0.91477E-02  0.10396E-01  0.87131E-02
  0.60488E-02  0.35388E-02  0.14269E-02 -0.37128E-03 -0.17854E-02 -0.28065E-02
 -0.29564E-02 -0.19507E-02 -0.13576E-02 -0.10479E-02 -0.17950E-02 -0.20478E-02
 -0.20150E-02 -0.19460E-02 -0.21432E-02 -0.25471E-02 -0.32096E-02 -0.40767E-02
 -0.49069E-02 -0.49686E-02 -0.10639E-02 -0.69894E-03  0.29835E-03  0.10238E-02
  0.12014E-02  0.99412E-03  0.63059E-03  0.13277E-03 -0.40593E-03 -0.96769E-03
 -0.15769E-02 -0.19921E-02 -0.20091E-02 -0.12099E-02 -0.54757E-03  0.77787E-03
  0.16736E-02  0.17462E-02  0.11854E-02  0.35969E-03 -0.49321E-03 -0.13888E-02
 -0.21879E-02 -0.28199E-02 -0.31775E-02 -0.27577E-02 -0.92333E-03  0.87007E-03
  0.52840E-02  0.83732E-02  0.83967E-02  0.63845E-02  0.39437E-02  0.17529E-02
 -0.15620E-03 -0.17840E-02 -0.30492E-02 -0.39404E-02 -0.38483E-02 -0.25210E-02
 -0.17605E-02 -0.15435E-02 -0.20802E-02 -0.21360E-02 -0.20387E-02 -0.20190E-02
 -0.23760E-02 -0.29241E-02 -0.37575E-02 -0.47516E-02 -0.56329E-02 -0.53843E-02
 -0.59426E-03 -0.24065E-03  0.71156E-03  0.11482E-02  0.11284E-02  0.83559E-03
  0.38551E-03 -0.12849E-03 -0.64875E-03 -0.11625E-02 -0.14726E-02 -0.15224E-02
 -0.95761E-03  0.25053E-03  0.77791E-03  0.18201E-02  0.21732E-02  0.17344E-02
  0.98415E-03  0.10971E-03 -0.74823E-03 -0.14383E-02 -0.18452E-02 -0.19304E-02
 -0.12681E-02  0.25373E-03  0.28532E-02  0.46259E-02  0.78000E-02  0.87898E-02
  0.72900E-02  0.48157E-02  0.23155E-02  0.60682E-04 -0.18497E-02 -0.32737E-02
 -0.43290E-02 -0.48753E-02 -0.42282E-02 -0.27044E-02 -0.20074E-02 -0.21174E-02
 -0.23064E-02 -0.21222E-02 -0.19645E-02 -0.21813E-02 -0.26314E-02 -0.33000E-02
 -0.41681E-02 -0.51210E-02 -0.55794E-02 -0.46764E-02 -0.14657E-03  0.10189E-03
  0.73666E-03  0.94936E-03  0.84911E-03  0.52438E-03  0.77084E-04 -0.37612E-03
 -0.76239E-03 -0.96755E-03 -0.97090E-03 -0.57745E-03  0.33442E-03  0.14043E-02
  0.16737E-02  0.21732E-02  0.19765E-02  0.13748E-02  0.62374E-03 -0.19868E-03
 -0.77101E-03 -0.10447E-02 -0.95482E-03 -0.24559E-03  0.11566E-02  0.30457E-02
  0.53235E-02  0.64498E-02  0.75649E-02  0.67455E-02  0.46350E-02  0.22408E-02
 -0.40852E-04 -0.19555E-02 -0.32779E-02 -0.41054E-02 -0.45933E-02 -0.44814E-02
 -0.34101E-02 -0.22973E-02 -0.17774E-02 -0.18203E-02 -0.16796E-02 -0.14693E-02
 -0.15490E-02 -0.19242E-02 -0.25123E-02 -0.32037E-02 -0.39648E-02 -0.46418E-02
 -0.46020E-02 -0.35334E-02  0.94048E-04  0.17783E-03  0.51021E-03  0.57880E-03
  0.42936E-03  0.13983E-03 -0.21046E-03 -0.48329E-03 -0.59934E-03 -0.55503E-03
 -0.26906E-03  0.33653E-03  0.10842E-02  0.17417E-02  0.17463E-02  0.17345E-02
  0.13748E-02  0.83241E-03  0.18689E-03 -0.29557E-03 -0.47324E-03 -0.31085E-03
  0.32180E-03  0.13317E-02  0.27189E-02  0.42039E-02  0.52377E-02  0.54479E-02
  0.48256E-02  0.31256E-02  0.10342E-02 -0.87691E-03 -0.24365E-02 -0.33612E-02
 -0.36252E-02 -0.36068E-02 -0.34279E-02 -0.28967E-02 -0.20532E-02 -0.14723E-02
 -0.10160E-02 -0.77118E-03 -0.52435E-03 -0.43723E-03 -0.65591E-03 -0.12551E-02
 -0.19206E-02 -0.24766E-02 -0.31177E-02 -0.35059E-02 -0.32923E-02 -0.24147E-02
  0.23909E-04  0.79081E-05  0.15557E-03  0.10265E-03 -0.43638E-04 -0.22080E-03
 -0.37092E-03 -0.36872E-03 -0.24804E-03 -0.40060E-04  0.33302E-03  0.73622E-03
  0.11474E-02  0.13275E-02  0.11855E-02  0.98419E-03  0.62377E-03  0.18691E-03
 -0.10144E-03 -0.17116E-03  0.63289E-04  0.61789E-03  0.11945E-02  0.19431E-02
  0.27640E-02  0.31070E-02  0.27251E-02  0.22684E-02  0.70221E-03 -0.11962E-02
 -0.28116E-02 -0.37152E-02 -0.38060E-02 -0.31671E-02 -0.23158E-02 -0.16502E-02
 -0.11795E-02 -0.71832E-03 -0.26593E-03  0.79228E-04  0.39262E-03  0.67026E-03
  0.90332E-03  0.94885E-03  0.60993E-03 -0.57906E-04 -0.70859E-03 -0.13680E-02
 -0.19454E-02 -0.22160E-02 -0.20466E-02 -0.14585E-02 -0.26054E-03 -0.30836E-03
 -0.31959E-03 -0.43429E-03 -0.46575E-03 -0.46519E-03 -0.32090E-03 -0.65533E-04
  0.10641E-03  0.31314E-03  0.49441E-03  0.62936E-03  0.67990E-03  0.49255E-03
  0.35975E-03  0.10975E-03 -0.19865E-03 -0.29554E-03 -0.17114E-03  0.18615E-03
  0.74930E-03  0.10801E-02  0.13230E-02  0.14981E-02  0.12316E-02  0.45413E-03
 -0.96863E-03 -0.18259E-02 -0.37721E-02 -0.53488E-02 -0.58478E-02 -0.48995E-02
 -0.29416E-02 -0.88517E-03  0.51595E-03  0.12501E-02  0.15068E-02  0.16550E-02
  0.17654E-02  0.18912E-02  0.19560E-02  0.21936E-02  0.24379E-02  0.24637E-02
  0.20641E-02  0.12926E-02  0.44411E-03 -0.36960E-03 -0.92319E-03 -0.11983E-02
 -0.11010E-02 -0.70656E-03 -0.67454E-03 -0.74181E-03 -0.85172E-03 -0.86522E-03
 -0.72007E-03 -0.42976E-03 -0.27702E-04  0.22162E-03  0.36435E-03  0.39643E-03
  0.32742E-03  0.19338E-03 -0.91362E-04 -0.42802E-03 -0.49316E-03 -0.74819E-03
 -0.77096E-03 -0.47319E-03  0.63325E-04  0.74932E-03  0.10362E-02  0.10330E-02
  0.75178E-03 -0.15862E-04 -0.11761E-02 -0.28820E-02 -0.50642E-02 -0.60496E-02
 -0.78019E-02 -0.82568E-02 -0.66132E-02 -0.32384E-02  0.49539E-03  0.31033E-02
  0.42880E-02  0.45234E-02  0.42595E-02  0.38944E-02  0.35927E-02  0.35518E-02
  0.33698E-02  0.35805E-02  0.38121E-02  0.36952E-02  0.29934E-02  0.20025E-02
  0.96708E-03  0.93567E-04 -0.38388E-03 -0.58278E-03 -0.45273E-03 -0.21417E-03
 -0.11917E-02 -0.12524E-02 -0.13009E-02 -0.11442E-02 -0.69798E-03 -0.13496E-03
  0.25637E-03  0.47278E-03  0.44270E-03  0.23007E-03 -0.64035E-04 -0.50150E-03
 -0.95348E-03 -0.13893E-02 -0.13887E-02 -0.14383E-02 -0.10447E-02 -0.31079E-03
  0.61794E-03  0.10801E-02  0.10330E-02  0.51197E-03 -0.60646E-03 -0.20836E-02
 -0.41264E-02 -0.66385E-02 -0.91670E-02 -0.10014E-01 -0.10788E-01 -0.89434E-02
 -0.42951E-02  0.14913E-02  0.60969E-02  0.83497E-02  0.86873E-02  0.79522E-02
  0.68910E-02  0.58770E-02  0.52649E-02  0.50348E-02  0.45842E-02  0.46357E-02
  0.45433E-02  0.39824E-02  0.29395E-02  0.17567E-02  0.71397E-03  0.91793E-04
 -0.20077E-03 -0.19043E-03 -0.12454E-04  0.24409E-03 -0.18308E-02 -0.18180E-02
 -0.17005E-02 -0.12145E-02 -0.41434E-03  0.22622E-03  0.59304E-03  0.58218E-03
  0.27227E-03 -0.12829E-03 -0.72342E-03 -0.13326E-02 -0.19297E-02 -0.23822E-02
 -0.21879E-02 -0.18451E-02 -0.95475E-03  0.32187E-03  0.11946E-02  0.13231E-02
  0.75180E-03 -0.60646E-03 -0.23746E-02 -0.47363E-02 -0.76033E-02 -0.10668E-01
 -0.13103E-01 -0.13446E-01 -0.12105E-01 -0.66513E-02  0.16739E-02  0.94574E-02
  0.13951E-01  0.14925E-01  0.13572E-01  0.11430E-01  0.93829E-02  0.77842E-02
  0.67567E-02  0.61883E-02  0.54018E-02  0.50146E-02  0.43356E-02  0.32274E-02
  0.18995E-02  0.75828E-03  0.11523E-03 -0.18597E-03 -0.14753E-03  0.11379E-03
  0.46569E-03  0.83656E-03 -0.25417E-02 -0.24031E-02 -0.19459E-02 -0.94209E-03
  0.10784E-03  0.75730E-03  0.87049E-03  0.50274E-03 -0.21595E-04 -0.73611E-03
 -0.15186E-02 -0.22925E-02 -0.30048E-02 -0.32584E-02 -0.28198E-02 -0.19304E-02
 -0.24551E-03  0.13317E-02  0.19432E-02  0.14981E-02 -0.15845E-04 -0.20836E-02
 -0.47363E-02 -0.79340E-02 -0.11499E-01 -0.14905E-01 -0.16743E-01 -0.16062E-01
 -0.10869E-01 -0.15601E-03  0.12588E-01  0.21698E-01  0.24427E-01  0.22458E-01
  0.18675E-01  0.14850E-01  0.11704E-01  0.93749E-02  0.78569E-02  0.68811E-02
  0.56820E-02  0.47012E-02  0.32265E-02  0.15401E-02  0.17823E-03 -0.52778E-03
 -0.67760E-03 -0.48705E-03 -0.30805E-04  0.49975E-03  0.11408E-02  0.16948E-02
 -0.32548E-02 -0.29292E-02 -0.18013E-02 -0.24038E-03  0.86925E-03  0.12405E-02
  0.92014E-03  0.24498E-03 -0.59539E-03 -0.15344E-02 -0.24603E-02 -0.34096E-02
 -0.40641E-02 -0.39666E-02 -0.31774E-02 -0.12680E-02  0.11567E-02  0.27190E-02
  0.27641E-02  0.12316E-02 -0.11761E-02 -0.41264E-02 -0.76033E-02 -0.11499E-01
 -0.15602E-01 -0.18980E-01 -0.18853E-01 -0.16203E-01 -0.54474E-02  0.12317E-01
  0.29818E-01  0.37942E-01  0.36202E-01  0.30064E-01  0.23517E-01  0.17834E-01
  0.13521E-01  0.10491E-01  0.85721E-02  0.70237E-02  0.54511E-02  0.35677E-02
  0.10443E-02 -0.98351E-03 -0.19267E-02 -0.18721E-02 -0.13403E-02 -0.59173E-03
  0.23002E-03  0.11570E-02  0.21126E-02  0.29330E-02 -0.37097E-02 -0.29567E-02
 -0.90416E-03  0.85260E-03  0.16206E-02  0.14446E-02  0.69538E-03 -0.29746E-03
 -0.13767E-02 -0.24308E-02 -0.34676E-02 -0.43776E-02 -0.47671E-02 -0.40374E-02
 -0.27576E-02  0.25383E-03  0.30458E-02  0.42039E-02  0.31070E-02  0.45415E-03
 -0.28820E-02 -0.66385E-02 -0.10668E-01 -0.14905E-01 -0.18980E-01 -0.20713E-01
 -0.17191E-01 -0.12554E-01  0.59442E-02  0.33248E-01  0.52526E-01  0.55169E-01
  0.47047E-01  0.36741E-01  0.27568E-01  0.20174E-01  0.14675E-01  0.10914E-01
  0.84508E-02  0.63915E-02  0.44029E-02  0.89191E-03 -0.24055E-02 -0.39207E-02
 -0.38060E-02 -0.28366E-02 -0.16374E-02 -0.41197E-03  0.84578E-03  0.21400E-02
  0.34655E-02  0.43429E-02 -0.32329E-02 -0.19816E-02  0.45475E-03  0.18145E-02
  0.19224E-02  0.12329E-02  0.15710E-03 -0.10683E-02 -0.22399E-02 -0.32777E-02
 -0.41983E-02 -0.47012E-02 -0.45829E-02 -0.27264E-02 -0.92325E-03  0.28532E-02
  0.53234E-02  0.52377E-02  0.27251E-02 -0.96863E-03 -0.50642E-02 -0.91670E-02
 -0.13103E-01 -0.16743E-01 -0.18853E-01 -0.17191E-01 -0.95601E-02 -0.65759E-03
  0.31181E-01  0.63480E-01  0.75432E-01  0.68661E-01  0.54886E-01  0.41781E-01
  0.30477E-01  0.21351E-01  0.14545E-01  0.98859E-02  0.69625E-02  0.36601E-02
  0.10082E-02 -0.36671E-02 -0.60132E-02 -0.60986E-02 -0.48702E-02 -0.31298E-02
 -0.14159E-02  0.18423E-03  0.17907E-02  0.34666E-02  0.49697E-02  0.54949E-02
 -0.26017E-02 -0.12923E-02  0.10384E-02  0.20716E-02  0.18654E-02  0.10001E-02
 -0.21046E-03 -0.14895E-02 -0.26153E-02 -0.35554E-02 -0.42239E-02 -0.43581E-02
 -0.37362E-02 -0.98125E-03  0.87013E-03  0.46259E-02  0.64498E-02  0.54478E-02
  0.22684E-02 -0.18259E-02 -0.60496E-02 -0.10014E-01 -0.13446E-01 -0.16062E-01
 -0.16202E-01 -0.12554E-01 -0.65759E-03  0.11663E-01  0.48092E-01  0.76383E-01
  0.81397E-01  0.70507E-01  0.55634E-01  0.42054E-01  0.30074E-01  0.20343E-01
  0.13167E-01  0.83131E-02  0.51523E-02  0.89765E-03 -0.16053E-02 -0.60167E-02
 -0.76545E-02 -0.71830E-02 -0.55163E-02 -0.34870E-02 -0.16037E-02  0.20675E-03
  0.20494E-02  0.39178E-02  0.54005E-02  0.56998E-02 -0.70167E-03  0.86998E-04
  0.17173E-02  0.20357E-02  0.14275E-02  0.28814E-03 -0.10682E-02 -0.22843E-02
 -0.31751E-02 -0.36263E-02 -0.34239E-02 -0.24606E-02 -0.35509E-04  0.43559E-02
  0.52840E-02  0.78000E-02  0.75648E-02  0.48256E-02  0.70219E-03 -0.37721E-02
 -0.78019E-02 -0.10788E-01 -0.12105E-01 -0.10869E-01 -0.54474E-02  0.59441E-02
  0.31181E-01  0.48092E-01  0.81684E-01  0.94959E-01  0.88653E-01  0.74349E-01
  0.59363E-01  0.44286E-01  0.29937E-01  0.18175E-01  0.97760E-02  0.40863E-02
 -0.35387E-03 -0.58952E-02 -0.63386E-02 -0.86660E-02 -0.87246E-02 -0.72344E-02
 -0.50181E-02 -0.28699E-02 -0.78260E-03  0.13079E-02  0.32803E-02  0.50735E-02
  0.61744E-02  0.57493E-02  0.88076E-03  0.92295E-03  0.17440E-02  0.15590E-02
  0.70126E-03 -0.55415E-03 -0.18315E-02 -0.27961E-02 -0.31339E-02 -0.26879E-02
 -0.13933E-02  0.10869E-02  0.49679E-02  0.91476E-02  0.83731E-02  0.87897E-02
  0.67454E-02  0.31255E-02 -0.11962E-02 -0.53488E-02 -0.82568E-02 -0.89434E-02
 -0.66513E-02 -0.15603E-03  0.12317E-01  0.33248E-01  0.63480E-01  0.76382E-01
  0.94958E-01  0.96039E-01  0.87087E-01  0.75146E-01  0.60530E-01  0.43064E-01
  0.26224E-01  0.13271E-01  0.45349E-02 -0.15173E-02 -0.63516E-02 -0.10594E-01
 -0.83919E-02 -0.89403E-02 -0.79186E-02 -0.59729E-02 -0.38943E-02 -0.17367E-02
  0.50016E-03  0.24835E-02  0.41699E-02  0.55306E-02  0.59797E-02  0.48666E-02
  0.15269E-02  0.11317E-02  0.13426E-02  0.86355E-03 -0.93482E-04 -0.12677E-02
 -0.22816E-02 -0.27115E-02 -0.22638E-02 -0.99762E-03  0.11666E-02  0.43639E-02
  0.78797E-02  0.10396E-01  0.83966E-02  0.72899E-02  0.46350E-02  0.10341E-02
 -0.28116E-02 -0.58478E-02 -0.66132E-02 -0.42951E-02  0.16739E-02  0.12588E-01
  0.29817E-01  0.52526E-01  0.75431E-01  0.81397E-01  0.88653E-01  0.87087E-01
  0.81742E-01  0.72293E-01  0.55985E-01  0.36094E-01  0.18839E-01  0.69587E-02
 -0.62421E-03 -0.57628E-02 -0.93322E-02 -0.11449E-01 -0.79298E-02 -0.72741E-02
 -0.58516E-02 -0.41983E-02 -0.23111E-02 -0.18740E-03  0.17721E-02  0.32432E-02
  0.43489E-02  0.50381E-02  0.48619E-02  0.35465E-02  0.14387E-02  0.89614E-03
  0.75885E-03  0.16095E-03 -0.76702E-03 -0.16826E-02 -0.22436E-02 -0.20167E-02
 -0.96051E-03  0.67816E-03  0.30379E-02  0.56674E-02  0.78730E-02  0.87131E-02
  0.63845E-02  0.48157E-02  0.22408E-02 -0.87692E-03 -0.37152E-02 -0.48995E-02
 -0.32384E-02  0.14913E-02  0.94573E-02  0.21697E-01  0.37942E-01  0.55169E-01
  0.68661E-01  0.70507E-01  0.74349E-01  0.75146E-01  0.72293E-01  0.61747E-01
  0.43442E-01  0.24426E-01  0.10237E-01  0.14679E-02 -0.36935E-02 -0.69327E-02
 -0.87053E-02 -0.92058E-02 -0.56246E-02 -0.46851E-02 -0.35713E-02 -0.21928E-02
 -0.51596E-03  0.12641E-02  0.25028E-02  0.32543E-02  0.37608E-02  0.39110E-02
  0.34057E-02  0.21945E-02  0.97806E-03  0.47621E-03  0.19192E-03 -0.46964E-03
 -0.12121E-02 -0.17824E-02 -0.18140E-02 -0.10334E-02  0.15214E-03  0.17554E-02
  0.35978E-02  0.51962E-02  0.62329E-02  0.60488E-02  0.39437E-02  0.23155E-02
 -0.40842E-04 -0.24365E-02 -0.38059E-02 -0.29416E-02  0.49540E-03  0.60969E-02
  0.13951E-01  0.24427E-01  0.36202E-01  0.47047E-01  0.54885E-01  0.55634E-01
  0.59363E-01  0.60530E-01  0.55985E-01  0.43442E-01  0.26808E-01  0.12593E-01
  0.33457E-02 -0.16803E-02 -0.43716E-02 -0.57351E-02 -0.61652E-02 -0.59661E-02
 -0.30534E-02 -0.23458E-02 -0.14575E-02 -0.40780E-03  0.87199E-03  0.18808E-02
  0.23479E-02  0.26693E-02  0.28329E-02  0.26955E-02  0.21446E-02  0.12230E-02
  0.51231E-03  0.11144E-03 -0.29878E-03 -0.90222E-03 -0.14019E-02 -0.15904E-02
 -0.11247E-02 -0.25661E-03  0.83160E-03  0.20959E-02  0.31870E-02  0.40304E-02
  0.41979E-02  0.35388E-02  0.17529E-02  0.60705E-04 -0.19554E-02 -0.33611E-02
 -0.31671E-02 -0.88513E-03  0.31033E-02  0.83497E-02  0.14925E-01  0.22458E-01
  0.30064E-01  0.36741E-01  0.41781E-01  0.42054E-01  0.44286E-01  0.43064E-01
  0.36094E-01  0.24426E-01  0.12593E-01  0.41000E-02 -0.57339E-03 -0.27302E-02
 -0.36033E-02 -0.37437E-02 -0.35962E-02 -0.32072E-02 -0.10134E-02 -0.48292E-03
  0.12055E-03  0.76131E-03  0.13772E-02  0.16624E-02  0.18612E-02  0.19695E-02
  0.19862E-02  0.17795E-02  0.13693E-02  0.70783E-03  0.10778E-03 -0.20798E-03
 -0.65614E-03 -0.11046E-02 -0.13628E-02 -0.12044E-02 -0.63117E-03  0.16578E-03
  0.10797E-02  0.18642E-02  0.24879E-02  0.27160E-02  0.23375E-02  0.14269E-02
 -0.15618E-03 -0.18496E-02 -0.32779E-02 -0.36252E-02 -0.23158E-02  0.51598E-03
  0.42880E-02  0.86873E-02  0.13572E-01  0.18675E-01  0.23517E-01  0.27568E-01
  0.30477E-01  0.30074E-01  0.29937E-01  0.26224E-01  0.18839E-01  0.10237E-01
  0.33457E-02 -0.57340E-03 -0.21752E-02 -0.25343E-02 -0.23274E-02 -0.19548E-02
 -0.15311E-02 -0.10787E-02  0.46509E-03  0.80222E-03  0.10727E-02  0.12476E-02
  0.12962E-02  0.13329E-02  0.13909E-02  0.14498E-02  0.14485E-02  0.12800E-02
  0.10097E-02  0.58425E-03 -0.18016E-03 -0.43105E-03 -0.84751E-03 -0.11576E-02
 -0.12246E-02 -0.89364E-03 -0.30245E-03  0.36972E-03  0.99874E-03  0.14516E-02
  0.16968E-02  0.14943E-02  0.83152E-03 -0.37125E-03 -0.17839E-02 -0.32736E-02
 -0.41053E-02 -0.36067E-02 -0.16502E-02  0.12501E-02  0.45234E-02  0.79522E-02
  0.11430E-01  0.14850E-01  0.17834E-01  0.20174E-01  0.21351E-01  0.20343E-01
  0.18175E-01  0.13271E-01  0.69588E-02  0.14679E-02 -0.16804E-02 -0.27302E-02
 -0.25344E-02 -0.18736E-02 -0.11390E-02 -0.49755E-03  0.55365E-04  0.49454E-03
  0.15067E-02  0.16404E-02  0.15460E-02  0.13610E-02  0.11953E-02  0.11395E-02
  0.11604E-02  0.12358E-02  0.12202E-02  0.11723E-02  0.10408E-02  0.78498E-03
 -0.36835E-03 -0.54707E-03 -0.91779E-03 -0.11762E-02 -0.10985E-02 -0.67935E-03
 -0.18007E-03  0.37574E-03  0.79633E-03  0.10167E-02  0.10123E-02  0.53650E-03
 -0.36873E-03 -0.17854E-02 -0.30492E-02 -0.43289E-02 -0.45932E-02 -0.34278E-02
 -0.11795E-02  0.15068E-02  0.42595E-02  0.68910E-02  0.93828E-02  0.11704E-01
  0.13521E-01  0.14675E-01  0.14545E-01  0.13167E-01  0.97761E-02  0.45349E-02
 -0.62424E-03 -0.36936E-02 -0.43717E-02 -0.36034E-02 -0.23275E-02 -0.11390E-02
 -0.13434E-03  0.61980E-03  0.12537E-02  0.17032E-02  0.22739E-02  0.21677E-02
  0.17856E-02  0.14230E-02  0.12166E-02  0.11533E-02  0.11889E-02  0.12369E-02
  0.12935E-02  0.13641E-02  0.13420E-02  0.12647E-02 -0.43315E-03 -0.56374E-03
 -0.98376E-03 -0.11447E-02 -0.97411E-03 -0.61586E-03 -0.12878E-03  0.33237E-03
  0.58491E-03  0.74680E-03  0.50940E-03 -0.12127E-03 -0.12295E-02 -0.28064E-02
 -0.39403E-02 -0.48751E-02 -0.44813E-02 -0.28967E-02 -0.71835E-03  0.16550E-02
  0.38943E-02  0.58770E-02  0.77842E-02  0.93749E-02  0.10491E-01  0.10914E-01
  0.98860E-02  0.83131E-02  0.40863E-02 -0.15173E-02 -0.57629E-02 -0.69329E-02
 -0.57352E-02 -0.37439E-02 -0.19549E-02 -0.49759E-03  0.61978E-03  0.15150E-02
  0.22193E-02  0.26226E-02  0.28132E-02  0.23832E-02  0.17767E-02  0.14448E-02
  0.13296E-02  0.13320E-02  0.13958E-02  0.14579E-02  0.16592E-02  0.18373E-02
  0.19698E-02  0.20354E-02 -0.34596E-03 -0.48836E-03 -0.87602E-03 -0.98698E-03
 -0.87558E-03 -0.54567E-03 -0.73600E-04  0.29272E-03  0.57491E-03  0.62977E-03
  0.29604E-03 -0.38908E-03 -0.15735E-02 -0.29563E-02 -0.38482E-02 -0.42281E-02
 -0.34101E-02 -0.20532E-02 -0.26601E-03  0.17653E-02  0.35926E-02  0.52648E-02
  0.67567E-02  0.78569E-02  0.85722E-02  0.84508E-02  0.69626E-02  0.51523E-02
 -0.35385E-03 -0.63517E-02 -0.93324E-02 -0.87055E-02 -0.61654E-02 -0.35963E-02
 -0.15312E-02  0.55302E-04  0.12537E-02  0.22192E-02  0.29185E-02  0.30982E-02
  0.28446E-02  0.19736E-02  0.15659E-02  0.16043E-02  0.16537E-02  0.17120E-02
  0.17694E-02  0.19601E-02  0.22892E-02  0.25809E-02  0.29167E-02  0.29895E-02
 -0.42612E-04 -0.18788E-03 -0.67216E-03 -0.90702E-03 -0.84642E-03 -0.49350E-03
  0.34048E-04  0.44323E-03  0.71969E-03  0.73660E-03  0.41524E-03 -0.22614E-03
 -0.10328E-02 -0.19506E-02 -0.25209E-02 -0.27044E-02 -0.22974E-02 -0.14725E-02
  0.79114E-04  0.18911E-02  0.35517E-02  0.50348E-02  0.61883E-02  0.68811E-02
  0.70238E-02  0.63915E-02  0.36602E-02  0.89769E-03 -0.58953E-02 -0.10594E-01
 -0.11449E-01 -0.92061E-02 -0.59663E-02 -0.32073E-02 -0.10788E-02  0.49448E-03
  0.17032E-02  0.26226E-02  0.30982E-02  0.25777E-02  0.19335E-02  0.13794E-02
  0.17344E-02  0.20327E-02  0.21248E-02  0.22155E-02  0.24087E-02  0.27408E-02
  0.30898E-02  0.35829E-02  0.40407E-02  0.39481E-02  0.10133E-04 -0.13470E-03
 -0.63903E-03 -0.84655E-03 -0.75690E-03 -0.36975E-03  0.14050E-03  0.50003E-03
  0.76668E-03  0.75222E-03  0.42893E-03 -0.94978E-04 -0.63873E-03 -0.13575E-02
 -0.17604E-02 -0.20074E-02 -0.17775E-02 -0.10161E-02  0.39251E-03  0.19560E-02
  0.33697E-02  0.45842E-02  0.54018E-02  0.56820E-02  0.54511E-02  0.44029E-02
  0.10082E-02 -0.16053E-02 -0.63388E-02 -0.83922E-02 -0.79302E-02 -0.56249E-02
 -0.30536E-02 -0.10135E-02  0.46500E-03  0.15067E-02  0.22739E-02  0.28132E-02
  0.28446E-02  0.19335E-02  0.12455E-02  0.11227E-02  0.17182E-02  0.20292E-02
  0.22213E-02  0.24526E-02  0.28022E-02  0.31990E-02  0.36129E-02  0.42036E-02
  0.46686E-02  0.44344E-02 -0.26053E-03 -0.45572E-03 -0.94825E-03 -0.10024E-02
 -0.71734E-03 -0.21498E-03  0.30401E-03  0.80447E-03  0.11399E-02  0.11305E-02
  0.93534E-03  0.60489E-03  0.13379E-03 -0.10479E-02 -0.15434E-02 -0.21175E-02
 -0.18204E-02 -0.77131E-03  0.67015E-03  0.21934E-02  0.35804E-02  0.46356E-02
  0.50145E-02  0.47012E-02  0.35677E-02  0.89188E-03 -0.36672E-02 -0.60168E-02
 -0.86663E-02 -0.89406E-02 -0.72744E-02 -0.46854E-02 -0.23460E-02 -0.48304E-03
  0.80214E-03  0.16403E-02  0.21676E-02  0.23831E-02  0.19735E-02  0.13794E-02
  0.11227E-02  0.18159E-02  0.23272E-02  0.25859E-02  0.29338E-02  0.33686E-02
  0.38582E-02  0.42102E-02  0.45868E-02  0.50689E-02  0.53758E-02  0.47867E-02
 -0.87539E-03 -0.92471E-03 -0.12091E-02 -0.10517E-02 -0.65178E-03 -0.65706E-04
  0.59811E-03  0.12211E-02  0.15146E-02  0.15284E-02  0.12376E-02  0.72967E-03
 -0.34346E-03 -0.17950E-02 -0.20802E-02 -0.23064E-02 -0.16797E-02 -0.52447E-03
  0.90320E-03  0.24378E-02  0.38120E-02  0.45432E-02  0.43356E-02  0.32264E-02
  0.10442E-02 -0.24056E-02 -0.60133E-02 -0.76547E-02 -0.87249E-02 -0.79189E-02
 -0.58518E-02 -0.35715E-02 -0.14576E-02  0.12046E-03  0.10726E-02  0.15460E-02