       #
       # Generated by the Wannier90 code http://www.wannier.org
       # On 15Jun2023 at 10:39:46 
       #
CRYSTAL
PRIMVEC
   0.0000000   2.7152650   2.7152650
   2.7152650   0.0000000   2.7152650
   2.7152650   2.7152650   0.0000000
CONVVEC
   0.0000000   2.7152650   2.7152650
   2.7152650   0.0000000   2.7152650
   2.7152650   2.7152650   0.0000000
PRIMCOORD
     2  1
Si      0.0000000   0.0000000   0.0000000
Si      1.3576325   1.3576325   1.3576325


BEGIN_BLOCK_DATAGRID_3D
3D_field
BEGIN_DATAGRID_3D_UNKNOWN
    52    52    52
  -11.278793  -11.278793  -11.278793
   0.0000000  10.6521935  10.6521935
  10.6521935   0.0000000  10.6521935
  10.6521935  10.6521935   0.0000000
 -0.85203E-03 -0.13909E-02 -0.27567E-02 -0.36739E-02 -0.35302E-02 -0.28362E-02
 -0.20940E-02 -0.14254E-02 -0.87464E-03 -0.45577E-03 -0.15053E-03 -0.19553E-04
 -0.11726E-03 -0.46131E-03 -0.68827E-03 -0.11157E-02 -0.14728E-02 -0.14171E-02
 -0.11052E-02 -0.66194E-03 -0.31139E-03 -0.11645E-04  0.23384E-03  0.38602E-03
  0.47255E-03  0.40235E-03  0.10603E-03 -0.17721E-03 -0.31103E-03 -0.32456E-03
 -0.19822E-03  0.31702E-04  0.34102E-03  0.64809E-03  0.99223E-03  0.12743E-02
  0.15123E-02  0.17035E-02  0.15214E-02  0.88677E-03  0.27744E-03 -0.11533E-02
 -0.21293E-02 -0.22983E-02 -0.17606E-02 -0.10241E-02 -0.24985E-03  0.47117E-03
  0.11911E-02  0.18174E-02  0.23535E-02  0.23920E-02 -0.34955E-03 -0.83035E-03
 -0.20910E-02 -0.29932E-02 -0.29100E-02 -0.23507E-02 -0.17518E-02 -0.11919E-02
 -0.69951E-03 -0.29692E-03 -0.25567E-04  0.98256E-04 -0.13721E-05 -0.33610E-03
 -0.55900E-03 -0.10389E-02 -0.14124E-02 -0.13097E-02 -0.96577E-03 -0.51026E-03
 -0.13191E-03  0.22885E-03  0.52827E-03  0.73486E-03  0.83852E-03  0.72175E-03
  0.23295E-03 -0.61475E-04 -0.33668E-03 -0.42589E-03 -0.30763E-03 -0.68823E-04
  0.29765E-03  0.61464E-03  0.99954E-03  0.13002E-02  0.15736E-02  0.16900E-02
  0.14109E-02  0.53680E-03 -0.17198E-03 -0.15747E-02 -0.23725E-02 -0.23284E-02
 -0.17224E-02 -0.99713E-03 -0.28262E-03  0.37005E-03  0.99122E-03  0.14977E-02
  0.18627E-02  0.17502E-02  0.75754E-03  0.25291E-03 -0.10356E-02 -0.18802E-02
 -0.19546E-02 -0.16672E-02 -0.12431E-02 -0.79458E-03 -0.28332E-03  0.15179E-03
  0.45461E-03  0.63599E-03  0.59117E-03  0.18310E-03 -0.11809E-03 -0.81831E-03
 -0.11367E-02 -0.10053E-02 -0.73899E-03 -0.36177E-03  0.18476E-04  0.38682E-03
  0.70057E-03  0.90094E-03  0.95250E-03  0.71355E-03  0.11444E-03 -0.13033E-03
 -0.44072E-03 -0.48884E-03 -0.34070E-03 -0.54131E-04  0.33639E-03  0.67941E-03
  0.10652E-02  0.13182E-02  0.14791E-02  0.13535E-02  0.75727E-03 -0.40603E-03
 -0.10228E-02 -0.20206E-02 -0.23641E-02 -0.20379E-02 -0.13908E-02 -0.66972E-03
  0.37071E-04  0.69783E-03  0.12685E-02  0.16777E-02  0.17760E-02  0.13246E-02
  0.12327E-02  0.69461E-03 -0.37356E-03 -0.10164E-02 -0.12281E-02 -0.11136E-02
 -0.80656E-03 -0.37488E-03  0.13641E-03  0.56784E-03  0.88458E-03  0.10433E-02
  0.90339E-03  0.32830E-03  0.36122E-04 -0.55342E-03 -0.80062E-03 -0.73924E-03
 -0.55185E-03 -0.21164E-03  0.15064E-03  0.50271E-03  0.77771E-03  0.90929E-03
  0.84673E-03  0.50513E-03 -0.63944E-04 -0.23923E-03 -0.49000E-03 -0.47514E-03
 -0.31652E-03 -0.64120E-04  0.33858E-03  0.68974E-03  0.96570E-03  0.10841E-02
  0.10612E-02  0.70190E-03 -0.71163E-04 -0.10285E-02 -0.14071E-02 -0.19465E-02
 -0.19475E-02 -0.15318E-02 -0.95889E-03 -0.32712E-03  0.35279E-03  0.89369E-03
  0.13007E-02  0.15021E-02  0.13341E-02  0.70024E-03  0.11443E-02  0.73449E-03
  0.61847E-05 -0.46698E-03 -0.69920E-03 -0.67746E-03 -0.39621E-03  0.23874E-04
  0.46627E-03  0.84202E-03  0.10747E-02  0.11162E-02  0.82686E-03  0.31164E-03
  0.11671E-03 -0.32633E-03 -0.52624E-03 -0.52496E-03 -0.37208E-03 -0.85407E-04
  0.26349E-03  0.53357E-03  0.70327E-03  0.72987E-03  0.57508E-03  0.22411E-03
 -0.17971E-03 -0.26399E-03 -0.45047E-03 -0.42927E-03 -0.31955E-03 -0.72467E-04
  0.26516E-03  0.51002E-03  0.67732E-03  0.67686E-03  0.53132E-03  0.84188E-04
 -0.53487E-03 -0.11451E-02 -0.13228E-02 -0.14950E-02 -0.13318E-02 -0.98414E-03
 -0.57069E-03 -0.52326E-04  0.44850E-03  0.76544E-03  0.96531E-03  0.98468E-03
  0.71025E-03  0.19883E-03  0.95584E-03  0.68257E-03  0.16782E-03 -0.16238E-03
 -0.41004E-03 -0.40212E-03 -0.13292E-03  0.22075E-03  0.57256E-03  0.84599E-03
  0.96650E-03  0.92209E-03  0.65315E-03  0.26860E-03  0.13342E-03 -0.17463E-03
 -0.34714E-03 -0.39286E-03 -0.30777E-03 -0.63121E-04  0.21664E-03  0.38533E-03
  0.50732E-03  0.46808E-03  0.34535E-03  0.84765E-04 -0.15598E-03 -0.21618E-03
 -0.39323E-03 -0.42571E-03 -0.36899E-03 -0.19568E-03  0.16021E-04  0.20167E-03
  0.28263E-03  0.26952E-03  0.10266E-03 -0.20856E-03 -0.55965E-03 -0.79711E-03
 -0.81764E-03 -0.80257E-03 -0.66739E-03 -0.48201E-03 -0.24129E-03  0.12807E-04
  0.23449E-03  0.34690E-03  0.41560E-03  0.36407E-03  0.19951E-03 -0.66353E-04
  0.74310E-03  0.56992E-03  0.22999E-03 -0.32960E-04 -0.27892E-03 -0.28894E-03
 -0.10790E-03  0.16973E-03  0.45231E-03  0.66654E-03  0.72933E-03  0.69252E-03
  0.50576E-03  0.23684E-03  0.14630E-03 -0.89954E-04 -0.25380E-03 -0.34935E-03
 -0.31718E-03 -0.14199E-03  0.22485E-04  0.19329E-03  0.28141E-03  0.26909E-03
  0.22028E-03  0.62300E-04 -0.91042E-04 -0.14921E-03 -0.30349E-03 -0.41537E-03
 -0.46691E-03 -0.42095E-03 -0.29443E-03 -0.21353E-03 -0.80865E-04 -0.23652E-04
 -0.45639E-04 -0.13012E-03 -0.20329E-03 -0.20388E-03 -0.19350E-03 -0.12471E-03
 -0.97248E-04 -0.11349E-03 -0.18659E-03 -0.23721E-03 -0.25855E-03 -0.21425E-03
 -0.14855E-03 -0.12621E-03 -0.95970E-04 -0.10738E-03  0.56686E-03  0.47691E-03
  0.21194E-03 -0.56006E-04 -0.31344E-03 -0.38894E-03 -0.26570E-03 -0.24905E-04
  0.21703E-03  0.43961E-03  0.50497E-03  0.49712E-03  0.39439E-03  0.24241E-03
  0.17709E-03 -0.36001E-04 -0.23256E-03 -0.37825E-03 -0.39829E-03 -0.30785E-03
 -0.14248E-03  0.14820E-04  0.13836E-03  0.18268E-03  0.19872E-03  0.13689E-03
  0.30277E-04 -0.40021E-04 -0.23129E-03 -0.42267E-03 -0.59545E-03 -0.65894E-03
 -0.61661E-03 -0.47459E-03 -0.24959E-03 -0.10463E-03  0.58724E-04  0.14715E-03
  0.29285E-03  0.38195E-03  0.41932E-03  0.48177E-03  0.30583E-03 -0.19359E-04
 -0.45312E-03 -0.73763E-03 -0.88015E-03 -0.76326E-03 -0.64752E-03 -0.45591E-03
 -0.24906E-03  0.61784E-05  0.44095E-03  0.36848E-03  0.96290E-04 -0.23763E-03
 -0.53908E-03 -0.66227E-03 -0.52935E-03 -0.29103E-03 -0.30316E-04  0.24125E-03
  0.35077E-03  0.41460E-03  0.37237E-03  0.27860E-03  0.20891E-03 -0.29910E-04
 -0.28167E-03 -0.48955E-03 -0.58088E-03 -0.46539E-03 -0.29375E-03 -0.84672E-04
  0.13135E-03  0.22986E-03  0.33063E-03  0.33252E-03  0.24803E-03  0.12560E-03
 -0.13912E-03 -0.43543E-03 -0.75696E-03 -0.89118E-03 -0.80270E-03 -0.57415E-03
 -0.28632E-03  0.15314E-04  0.31314E-03  0.58710E-03  0.88581E-03  0.10611E-02
  0.10708E-02  0.93816E-03  0.47965E-03 -0.25594E-03 -0.98490E-03 -0.13625E-02
 -0.14447E-02 -0.12370E-02 -0.97752E-03 -0.62964E-03 -0.28263E-03  0.13584E-03
  0.34021E-03  0.28958E-03 -0.70205E-04 -0.55028E-03 -0.90457E-03 -0.10543E-02
 -0.83875E-03 -0.53569E-03 -0.19344E-03  0.10627E-03  0.31286E-03  0.43116E-03
  0.42482E-03  0.33722E-03  0.24554E-03 -0.49985E-04 -0.41104E-03 -0.68085E-03
 -0.75802E-03 -0.60639E-03 -0.35412E-03 -0.64309E-04  0.19974E-03  0.40173E-03
  0.55724E-03  0.60737E-03  0.52471E-03  0.36297E-03  0.20386E-05 -0.48764E-03
 -0.94104E-03 -0.10968E-02 -0.97897E-03 -0.64207E-03 -0.19637E-03  0.26710E-03
  0.73312E-03  0.11681E-02  0.15749E-02  0.17452E-02  0.16627E-02  0.12506E-02
  0.33584E-03 -0.82980E-03 -0.17157E-02 -0.20545E-02 -0.19926E-02 -0.16042E-02
 -0.11656E-02 -0.68349E-03 -0.20882E-03  0.32949E-03  0.33566E-03  0.25303E-03
 -0.33327E-03 -0.96833E-03 -0.13983E-02 -0.14583E-02 -0.11127E-02 -0.68318E-03
 -0.25871E-03  0.85959E-04  0.35041E-03  0.50769E-03  0.56755E-03  0.43669E-03
  0.31058E-03 -0.13106E-03 -0.64104E-03 -0.92954E-03 -0.97796E-03 -0.70446E-03
 -0.33014E-03  0.20025E-04  0.39711E-03  0.68760E-03  0.90437E-03  0.97762E-03
  0.89455E-03  0.65182E-03  0.30091E-04 -0.71198E-03 -0.12836E-02 -0.14164E-02
 -0.11450E-02 -0.59553E-03 -0.16862E-04  0.62776E-03  0.12409E-02  0.18417E-02
  0.23416E-02  0.24984E-02  0.22712E-02  0.13282E-02 -0.23182E-03 -0.18059E-02
 -0.27270E-02 -0.28489E-02 -0.24717E-02 -0.18776E-02 -0.12886E-02 -0.66929E-03
 -0.11314E-03  0.47767E-03  0.35481E-03  0.18557E-03 -0.65997E-03 -0.15037E-02
 -0.19058E-02 -0.17696E-02 -0.12857E-02 -0.71731E-03 -0.22973E-03  0.19397E-03
  0.48214E-03  0.70789E-03  0.76897E-03  0.55780E-03  0.37012E-03 -0.30355E-03
 -0.96259E-03 -0.12451E-02 -0.11284E-02 -0.69876E-03 -0.22188E-03  0.24583E-03
  0.67411E-03  0.10569E-02  0.13793E-02  0.14960E-02  0.12715E-02  0.85076E-03
 -0.14576E-03 -0.12064E-02 -0.18523E-02 -0.18292E-02 -0.12953E-02 -0.53544E-03
  0.24823E-03  0.10728E-02  0.18744E-02  0.26969E-02  0.32705E-02  0.32246E-02
  0.26937E-02  0.95700E-03 -0.14033E-02 -0.32107E-02 -0.38085E-02 -0.34800E-02
 -0.27633E-02 -0.20017E-02 -0.12977E-02 -0.61132E-03  0.38403E-05  0.58540E-03
  0.43441E-03  0.14115E-03 -0.10215E-02 -0.19707E-02 -0.21953E-02 -0.18657E-02
 -0.12378E-02 -0.62616E-03 -0.10735E-03  0.37851E-03  0.70044E-03  0.95288E-03
  0.96520E-03  0.62944E-03  0.33010E-03 -0.58215E-03 -0.12898E-02 -0.14326E-02
 -0.11234E-02 -0.58498E-03  0.10476E-04  0.55564E-03  0.10590E-02  0.15241E-02
  0.18938E-02  0.19334E-02  0.14666E-02  0.85724E-03 -0.60499E-03 -0.19615E-02
 -0.25629E-02 -0.22764E-02 -0.14574E-02 -0.43722E-03  0.56661E-03  0.15817E-02
  0.26089E-02  0.35929E-02  0.40733E-02  0.35728E-02  0.26268E-02 -0.14893E-03
 -0.30767E-02 -0.45651E-02 -0.45782E-02 -0.37929E-02 -0.27978E-02 -0.19079E-02
 -0.11308E-02 -0.39512E-03  0.22375E-03  0.67489E-03  0.46961E-03  0.23563E-04
 -0.12912E-02 -0.21344E-02 -0.21545E-02 -0.16920E-02 -0.10183E-02 -0.43097E-03
  0.10125E-03  0.59273E-03  0.93132E-03  0.11601E-02  0.10883E-02  0.53249E-03
  0.11257E-03 -0.90112E-03 -0.15065E-02 -0.14693E-02 -0.99778E-03 -0.35442E-03
  0.29263E-03  0.92968E-03  0.14755E-02  0.19272E-02  0.22268E-02  0.21292E-02
  0.12723E-02  0.34150E-03 -0.16725E-02 -0.31118E-02 -0.33753E-02 -0.26447E-02
 -0.15376E-02 -0.31882E-03  0.82881E-03  0.20125E-02  0.31340E-02  0.40981E-02
  0.42352E-02  0.29979E-02  0.15338E-02 -0.19404E-02 -0.45469E-02 -0.53338E-02
 -0.47338E-02 -0.36711E-02 -0.25763E-02 -0.16381E-02 -0.75475E-03 -0.60592E-04
  0.49009E-03  0.68569E-03  0.36542E-03 -0.12672E-03 -0.13762E-02 -0.20895E-02
 -0.20097E-02 -0.15290E-02 -0.86942E-03 -0.29405E-03  0.22983E-03  0.69037E-03
  0.99815E-03  0.11553E-02  0.96383E-03  0.24185E-03 -0.23072E-03 -0.11661E-02
 -0.16323E-02 -0.14648E-02 -0.90665E-03 -0.23658E-03  0.40056E-03  0.10242E-02
  0.15062E-02  0.18781E-02  0.20362E-02  0.17750E-02  0.52676E-03 -0.49250E-03
 -0.27081E-02 -0.39923E-02 -0.38837E-02 -0.28860E-02 -0.16269E-02 -0.32977E-03
  0.89333E-03  0.21206E-02  0.32207E-02  0.40311E-02  0.38493E-02  0.21690E-02
  0.48294E-03 -0.30137E-02 -0.52714E-02 -0.56895E-02 -0.49139E-02 -0.39253E-02
 -0.29990E-02 -0.22644E-02 -0.16319E-02 -0.12991E-02 -0.10627E-02 -0.92201E-03
  0.28052E-03 -0.16127E-03 -0.12354E-02 -0.16847E-02 -0.15210E-02 -0.11227E-02
 -0.55639E-03 -0.32324E-04  0.44928E-03  0.83445E-03  0.10515E-02  0.99368E-03
  0.51105E-03 -0.46990E-03 -0.83488E-03 -0.14815E-02 -0.16041E-02 -0.12223E-02
 -0.62404E-03  0.42565E-04  0.64947E-03  0.11841E-02  0.15396E-02  0.16957E-02
  0.14258E-02  0.45418E-03 -0.17092E-02 -0.28003E-02 -0.45327E-02 -0.49414E-02
 -0.41969E-02 -0.30592E-02 -0.17612E-02 -0.45788E-03  0.85156E-03  0.20562E-02
  0.29487E-02  0.31492E-02  0.21727E-02 -0.90275E-04 -0.17343E-02 -0.42282E-02
 -0.53587E-02 -0.51123E-02 -0.42641E-02 -0.33758E-02 -0.25518E-02 -0.18445E-02
 -0.12746E-02 -0.10220E-02 -0.90413E-03 -0.73509E-03  0.17729E-03 -0.12508E-03
 -0.89711E-03 -0.11382E-02 -0.10043E-02 -0.71336E-03 -0.28770E-03  0.15176E-03
  0.53941E-03  0.77972E-03  0.78430E-03  0.47804E-03 -0.21189E-03 -0.10838E-02
 -0.11781E-02 -0.14707E-02 -0.13396E-02 -0.93066E-03 -0.39747E-03  0.21903E-03
  0.72645E-03  0.10808E-02  0.11754E-02  0.89065E-03  0.48680E-05 -0.16482E-02
 -0.38468E-02 -0.45052E-02 -0.52691E-02 -0.50632E-02 -0.42918E-02 -0.33767E-02
 -0.22031E-02 -0.91044E-03  0.36305E-03  0.13629E-02  0.18249E-02  0.14209E-02
  0.70320E-04 -0.18389E-02 -0.29978E-02 -0.42229E-02 -0.44783E-02 -0.39692E-02
 -0.32602E-02 -0.24843E-02 -0.16785E-02 -0.99761E-03 -0.54986E-03 -0.37730E-03
 -0.28363E-03 -0.20949E-03  0.78493E-04 -0.50870E-04 -0.51885E-03 -0.66373E-03
 -0.59688E-03 -0.41095E-03 -0.12452E-03  0.18860E-03  0.40143E-03  0.45871E-03
  0.29869E-03 -0.10638E-03 -0.71338E-03 -0.12179E-02 -0.11285E-02 -0.11986E-02
 -0.97399E-03 -0.66769E-03 -0.25682E-03  0.17883E-03  0.51238E-03  0.61226E-03
  0.40966E-03 -0.20345E-03 -0.13728E-02 -0.29773E-02 -0.44613E-02 -0.47245E-02
 -0.50335E-02 -0.48647E-02 -0.45043E-02 -0.39745E-02 -0.29442E-02 -0.17154E-02
 -0.61585E-03  0.10895E-03  0.29930E-03 -0.21908E-03 -0.12371E-02 -0.23104E-02
 -0.29624E-02 -0.32966E-02 -0.30518E-02 -0.24955E-02 -0.19196E-02 -0.11203E-02
 -0.29236E-03  0.20028E-03  0.41666E-03  0.46001E-03  0.40055E-03  0.15576E-03
  0.10006E-03  0.98331E-04 -0.16839E-03 -0.27583E-03 -0.31016E-03 -0.26907E-03
 -0.13424E-03 -0.99033E-05  0.55610E-04  0.33172E-04 -0.17939E-03 -0.48831E-03
 -0.83200E-03 -0.10240E-02 -0.85943E-03 -0.85039E-03 -0.71659E-03 -0.54831E-03
 -0.32869E-03 -0.10055E-03  0.42702E-04 -0.61455E-04 -0.36989E-03 -0.10257E-02
 -0.20558E-02 -0.31599E-02 -0.39771E-02 -0.41335E-02 -0.44501E-02 -0.46535E-02
 -0.48254E-02 -0.46008E-02 -0.37472E-02 -0.26755E-02 -0.17307E-02 -0.11142E-02
 -0.92753E-03 -0.11806E-02 -0.16090E-02 -0.19001E-02 -0.21305E-02 -0.18858E-02
 -0.13503E-02 -0.70985E-03 -0.11783E-04  0.77437E-03  0.12701E-02  0.13936E-02
  0.13361E-02  0.12190E-02  0.10706E-02  0.80952E-03  0.17207E-03  0.23348E-03
  0.96775E-04 -0.87559E-05 -0.20517E-03 -0.33725E-03 -0.37020E-03 -0.39803E-03
 -0.34628E-03 -0.38171E-03 -0.47016E-03 -0.57253E-03 -0.70997E-03 -0.71919E-03
 -0.55684E-03 -0.56823E-03 -0.55737E-03 -0.59848E-03 -0.57576E-03 -0.54025E-03
 -0.53571E-03 -0.60803E-03 -0.83504E-03 -0.13146E-02 -0.19514E-02 -0.25589E-02
 -0.30288E-02 -0.32840E-02 -0.38001E-02 -0.43893E-02 -0.49054E-02 -0.48895E-02
 -0.42907E-02 -0.33891E-02 -0.25049E-02 -0.18957E-02 -0.15684E-02 -0.14611E-02
 -0.13737E-02 -0.10142E-02 -0.97048E-03 -0.33985E-03  0.50435E-03  0.13465E-02
  0.21204E-02  0.25239E-02  0.25054E-02  0.22741E-02  0.20679E-02  0.19796E-02
  0.19580E-02  0.18879E-02  0.30301E-03  0.41991E-03  0.31782E-03  0.10382E-03
 -0.27109E-03 -0.57208E-03 -0.75301E-03 -0.78343E-03 -0.70946E-03 -0.64619E-03
 -0.55288E-03 -0.52641E-03 -0.48702E-03 -0.44119E-03 -0.30555E-03 -0.34634E-03
 -0.54895E-03 -0.77796E-03 -0.90076E-03 -0.98718E-03 -0.89015E-03 -0.83059E-03
 -0.89920E-03 -0.10349E-02 -0.12663E-02 -0.15329E-02 -0.18747E-02 -0.23174E-02
 -0.29677E-02 -0.38115E-02 -0.45443E-02 -0.47361E-02 -0.43986E-02 -0.36536E-02
 -0.28609E-02 -0.22567E-02 -0.17498E-02 -0.13422E-02 -0.82594E-03 -0.10308E-03
  0.98797E-04  0.11344E-02  0.22253E-02  0.31422E-02  0.36884E-02  0.36153E-02
  0.32035E-02  0.28388E-02  0.27098E-02  0.28265E-02  0.31170E-02  0.34370E-02
  0.49454E-03  0.64666E-03  0.44509E-03  0.60369E-04 -0.50175E-03 -0.96857E-03
 -0.11453E-02 -0.11174E-02 -0.93736E-03 -0.72360E-03 -0.51168E-03 -0.33188E-03
 -0.20640E-03 -0.22822E-03 -0.12393E-03 -0.29370E-03 -0.68636E-03 -0.10210E-02
 -0.12463E-02 -0.11991E-02 -0.95871E-03 -0.69820E-03 -0.44619E-03 -0.23409E-03
 -0.11569E-03 -0.82278E-04 -0.32724E-03 -0.98429E-03 -0.17268E-02 -0.28353E-02
 -0.38134E-02 -0.43026E-02 -0.41857E-02 -0.36231E-02 -0.29281E-02 -0.22961E-02
 -0.16729E-02 -0.10549E-02 -0.28784E-03  0.67989E-03  0.99779E-03  0.22461E-02
  0.34137E-02  0.41909E-02  0.43475E-02  0.40056E-02  0.35692E-02  0.33761E-02
  0.35166E-02  0.40682E-02  0.48487E-02  0.56337E-02  0.69950E-03  0.87791E-03
  0.49747E-03 -0.15839E-03 -0.97335E-03 -0.14693E-02 -0.15897E-02 -0.14003E-02
 -0.10285E-02 -0.68892E-03 -0.33892E-03 -0.96870E-04  0.48579E-04 -0.25296E-04
  0.36866E-04 -0.34739E-03 -0.91322E-03 -0.13850E-02 -0.15094E-02 -0.12342E-02
 -0.73699E-03 -0.63477E-04  0.54571E-03  0.11581E-02  0.17227E-02  0.21312E-02
  0.20350E-02  0.10391E-02  0.66431E-05 -0.15700E-02 -0.30116E-02 -0.37970E-02
 -0.38297E-02 -0.34304E-02 -0.28036E-02 -0.21959E-02 -0.15374E-02 -0.82683E-03
  0.13457E-03  0.12659E-02  0.15975E-02  0.29073E-02  0.40003E-02  0.45155E-02
  0.44470E-02  0.41284E-02  0.39433E-02  0.41736E-02  0.48918E-02  0.60741E-02
  0.75426E-02  0.89497E-02  0.95231E-03  0.11477E-02  0.45257E-03 -0.63585E-03
 -0.16490E-02 -0.20898E-02 -0.20265E-02 -0.15226E-02 -0.10128E-02 -0.49614E-03
 -0.91174E-04  0.18794E-03  0.31081E-03  0.93110E-04  0.71314E-04 -0.61287E-03
 -0.13560E-02 -0.18213E-02 -0.16463E-02 -0.97928E-03  0.12252E-04  0.11082E-02
  0.22569E-02  0.35042E-02  0.47374E-02  0.56564E-02  0.56805E-02  0.40114E-02
  0.21033E-02 -0.36670E-03 -0.22997E-02 -0.32637E-02 -0.34247E-02 -0.31713E-02
 -0.27083E-02 -0.21622E-02 -0.14997E-02 -0.70724E-03  0.36205E-03  0.15828E-02
  0.19145E-02  0.32282E-02  0.42317E-02  0.46257E-02  0.44822E-02  0.43474E-02
  0.46043E-02  0.55533E-02  0.71373E-02  0.93515E-02  0.11885E-01  0.14045E-01
  0.11650E-02  0.13407E-02  0.13056E-03 -0.14810E-02 -0.25721E-02 -0.27521E-02
 -0.22791E-02 -0.15137E-02 -0.83960E-03 -0.18600E-03  0.23963E-03  0.54182E-03
  0.50374E-03  0.10118E-03 -0.29018E-04 -0.10770E-02 -0.19478E-02 -0.21856E-02
 -0.15139E-02 -0.23328E-03  0.13631E-02  0.31336E-02  0.51559E-02  0.73292E-02
  0.95397E-02  0.11134E-01  0.10562E-01  0.74100E-02  0.36021E-02  0.38443E-03
 -0.15803E-02 -0.26745E-02 -0.30649E-02 -0.30557E-02 -0.27711E-02 -0.22794E-02
 -0.15955E-02 -0.72552E-03  0.34880E-03  0.15804E-02  0.18605E-02  0.32907E-02
  0.44316E-02  0.47432E-02  0.46995E-02  0.49428E-02  0.59224E-02  0.78698E-02
  0.10816E-01  0.14615E-01  0.18706E-01  0.21641E-01  0.13058E-02  0.13358E-02
 -0.58186E-03 -0.26238E-02 -0.34523E-02 -0.31410E-02 -0.22748E-02 -0.13142E-02
 -0.49318E-03  0.16905E-03  0.61826E-03  0.83380E-03  0.62634E-03  0.41734E-04
 -0.23417E-03 -0.15816E-02 -0.23568E-02 -0.21955E-02 -0.89919E-03  0.11630E-02
  0.36517E-02  0.64973E-02  0.97132E-02  0.13207E-01  0.16787E-01  0.18330E-01
  0.14998E-01  0.98367E-02  0.43652E-02  0.12624E-02 -0.60747E-03 -0.20691E-02
 -0.28716E-02 -0.31289E-02 -0.29738E-02 -0.25056E-02 -0.17745E-02 -0.86678E-03
  0.59364E-04  0.96761E-03  0.11633E-02  0.29263E-02  0.43960E-02  0.48549E-02
  0.51489E-02  0.61458E-02  0.83256E-02  0.11817E-01  0.16699E-01  0.22621E-01
  0.28648E-01  0.31155E-01  0.10697E-02  0.76811E-03 -0.17896E-02 -0.36937E-02
 -0.38754E-02 -0.31124E-02 -0.19787E-02 -0.93743E-03 -0.58461E-04  0.54213E-03
  0.92733E-03  0.91913E-03  0.61605E-03 -0.25508E-03 -0.76578E-03 -0.21880E-02
 -0.26786E-02 -0.18804E-02  0.36289E-03  0.34978E-02  0.72581E-02  0.11517E-01
  0.16182E-01  0.21335E-01  0.25839E-01  0.25618E-01  0.19121E-01  0.12625E-01
  0.62700E-02  0.28524E-02  0.41557E-03 -0.16257E-02 -0.28607E-02 -0.33545E-02
 -0.32193E-02 -0.26554E-02 -0.18675E-02 -0.99901E-03 -0.52074E-03 -0.19744E-03
  0.19145E-03  0.25304E-02  0.42965E-02  0.50210E-02  0.60943E-02  0.84532E-02
  0.12414E-01  0.18073E-01  0.25164E-01  0.33367E-01  0.40389E-01  0.39959E-01
  0.61233E-03  0.22867E-03 -0.25286E-02 -0.41648E-02 -0.40510E-02 -0.31720E-02
 -0.20237E-02 -0.10271E-02 -0.15071E-03  0.43082E-03  0.80024E-03  0.77763E-03
  0.49397E-03 -0.55459E-03 -0.10402E-02 -0.26163E-02 -0.30622E-02 -0.19334E-02
  0.54695E-03  0.38792E-02  0.78603E-02  0.12298E-01  0.17085E-01  0.22313E-01
  0.26308E-01  0.25324E-01  0.18892E-01  0.12555E-01  0.70277E-02  0.38844E-02
  0.13369E-02 -0.88072E-03 -0.23190E-02 -0.29564E-02 -0.28821E-02 -0.23637E-02
 -0.16534E-02 -0.92769E-03 -0.70789E-03 -0.41718E-03  0.17511E-03  0.25694E-02
  0.41264E-02  0.50614E-02  0.68234E-02  0.10195E-01  0.15449E-01  0.22430E-01
  0.30663E-01  0.39794E-01  0.46651E-01  0.43809E-01 -0.93610E-03 -0.13330E-02
 -0.34981E-02 -0.41524E-02 -0.36389E-02 -0.26666E-02 -0.16286E-02 -0.70617E-03
  0.83098E-04  0.46771E-03  0.48562E-03  0.21635E-04 -0.10384E-02 -0.28810E-02
 -0.33144E-02 -0.41279E-02 -0.33571E-02 -0.94357E-03  0.26745E-02  0.73723E-02
  0.12792E-01  0.18537E-01  0.24323E-01  0.29971E-01  0.32930E-01  0.30246E-01
  0.22181E-01  0.15150E-01  0.90644E-02  0.50890E-02  0.15939E-02 -0.10420E-02
 -0.25542E-02 -0.30750E-02 -0.27687E-02 -0.20197E-02 -0.11486E-02 -0.33699E-03
  0.24864E-03  0.12744E-02  0.18682E-02  0.34127E-02  0.44116E-02  0.61326E-02
  0.96418E-02  0.15609E-01  0.23567E-01  0.32346E-01  0.41380E-01  0.50160E-01
  0.54393E-01  0.46480E-01 -0.22825E-02 -0.23149E-02 -0.34991E-02 -0.35632E-02
 -0.30156E-02 -0.21899E-02 -0.13266E-02 -0.47921E-03  0.98513E-04  0.13909E-03
 -0.39274E-03 -0.16129E-02 -0.34873E-02 -0.52247E-02 -0.51255E-02 -0.47365E-02
 -0.27813E-02  0.60670E-03  0.53526E-02  0.11413E-01  0.18136E-01  0.24489E-01
  0.29960E-01  0.34332E-01  0.35267E-01  0.30789E-01  0.22255E-01  0.15646E-01
  0.98018E-02  0.49744E-02  0.10855E-02 -0.13477E-02 -0.24986E-02 -0.26479E-02
 -0.20541E-02 -0.10791E-02  0.18152E-04  0.12218E-02  0.24803E-02  0.34644E-02
  0.32789E-02  0.38222E-02  0.51161E-02  0.83037E-02  0.14552E-01  0.23641E-01
  0.33413E-01  0.41737E-01  0.48856E-01  0.54534E-01  0.54594E-01  0.44121E-01
 -0.26839E-02 -0.24300E-02 -0.29543E-02 -0.28386E-02 -0.24437E-02 -0.18554E-02
 -0.11187E-02 -0.40974E-03 -0.16034E-03 -0.50499E-03 -0.15436E-02 -0.31829E-02
 -0.49138E-02 -0.58662E-02 -0.53415E-02 -0.41919E-02 -0.16820E-02  0.23012E-02
  0.79066E-02  0.14996E-01  0.22244E-01  0.27775E-01  0.31437E-01  0.33425E-01
  0.32214E-01  0.27005E-01  0.19576E-01  0.13878E-01  0.81875E-02  0.35304E-02
  0.35731E-03 -0.13529E-02 -0.18634E-02 -0.15885E-02 -0.83897E-03  0.24882E-03
  0.14554E-02  0.26748E-02  0.35972E-02  0.38690E-02  0.34257E-02  0.41518E-02
  0.64959E-02  0.11909E-01  0.21115E-01  0.32198E-01  0.41001E-01  0.45907E-01
  0.49088E-01  0.50549E-01  0.47127E-01  0.36851E-01 -0.23729E-02 -0.20623E-02
 -0.22903E-02 -0.22083E-02 -0.19674E-02 -0.15365E-02 -0.88700E-03 -0.43976E-03
 -0.56103E-03 -0.11822E-02 -0.24443E-02 -0.38830E-02 -0.50412E-02 -0.53149E-02
 -0.46410E-02 -0.32809E-02 -0.62944E-03  0.36430E-02  0.97386E-02  0.17089E-01
  0.23439E-01  0.26930E-01  0.28222E-01  0.27946E-01  0.25407E-01  0.20480E-01
  0.14381E-01  0.99085E-02  0.53337E-02  0.19213E-02 -0.15172E-03 -0.95395E-03
 -0.90493E-03 -0.36887E-03  0.45173E-03  0.15202E-02  0.25434E-02  0.33338E-02
  0.36667E-02  0.37479E-02  0.34877E-02  0.47568E-02  0.84452E-02  0.15808E-01
  0.26412E-01  0.36357E-01  0.41282E-01  0.42249E-01  0.42002E-01  0.40436E-01
  0.35547E-01  0.27037E-01 -0.18735E-02 -0.16261E-02 -0.17472E-02 -0.16849E-02
 -0.14699E-02 -0.10773E-02 -0.58907E-03 -0.51361E-03 -0.86642E-03 -0.16305E-02
 -0.27665E-02 -0.38236E-02 -0.45717E-02 -0.45394E-02 -0.39251E-02 -0.26144E-02
  0.62247E-04  0.45063E-02  0.10619E-01  0.17007E-01  0.21253E-01  0.22604E-01
  0.22226E-01  0.20648E-01  0.17679E-01  0.13551E-01  0.90928E-02  0.60257E-02
  0.28634E-02  0.58244E-03 -0.51469E-03 -0.67925E-03 -0.22349E-03  0.57933E-03
  0.14803E-02  0.23943E-02  0.31123E-02  0.34800E-02  0.35096E-02  0.36225E-02
  0.35798E-02  0.54090E-02  0.98964E-02  0.17547E-01  0.26563E-01  0.32681E-01
  0.34176E-01  0.33231E-01  0.31517E-01  0.28827E-01  0.24143E-01  0.18019E-01
 -0.14305E-02 -0.12371E-02 -0.12589E-02 -0.11621E-02 -0.89739E-03 -0.57096E-03
 -0.36631E-03 -0.53601E-03 -0.10156E-02 -0.18114E-02 -0.26992E-02 -0.35540E-02
 -0.41021E-02 -0.40641E-02 -0.35236E-02 -0.22598E-02  0.42576E-03  0.48527E-02
  0.10213E-01  0.14743E-01  0.16904E-01  0.17045E-01  0.15977E-01  0.14062E-01
  0.11410E-01  0.83544E-02  0.52629E-02  0.31928E-02  0.10341E-02 -0.41717E-03
 -0.86519E-03 -0.53424E-03  0.33045E-03  0.13031E-02  0.22043E-02  0.28793E-02
  0.32771E-02  0.33238E-02  0.32248E-02  0.33793E-02  0.34947E-02  0.54943E-02
  0.97065E-02  0.15798E-01  0.21541E-01  0.24494E-01  0.24649E-01  0.23516E-01
  0.21780E-01  0.19141E-01  0.15516E-01  0.11497E-01 -0.11235E-02 -0.95466E-03
 -0.89433E-03 -0.68051E-03 -0.36923E-03 -0.13859E-03 -0.12685E-03 -0.43645E-03
 -0.10229E-02 -0.17687E-02 -0.25649E-02 -0.33500E-02 -0.38670E-02 -0.39546E-02
 -0.34443E-02 -0.22294E-02  0.46149E-03  0.44684E-02  0.85934E-02  0.11418E-01
  0.12377E-01  0.12039E-01  0.10838E-01  0.91357E-02  0.70826E-02  0.48881E-02
  0.26750E-02  0.12584E-02 -0.22390E-03 -0.10238E-02 -0.91079E-03 -0.11704E-03
  0.95466E-03  0.19393E-02  0.26706E-02  0.30436E-02  0.31539E-02  0.29800E-02
  0.27788E-02  0.28516E-02  0.29792E-02  0.46674E-02  0.78930E-02  0.11917E-01
  0.15218E-01  0.16731E-01  0.16718E-01  0.15900E-01  0.14463E-01  0.12381E-01
  0.98278E-02  0.71514E-02 -0.89230E-03 -0.75394E-03 -0.59350E-03 -0.23255E-03
  0.99503E-04  0.29394E-03  0.14361E-03 -0.26261E-03 -0.90372E-03 -0.16265E-02
 -0.24785E-02 -0.32805E-02 -0.39520E-02 -0.42019E-02 -0.36926E-02 -0.24840E-02
  0.16667E-03  0.36099E-02  0.67183E-02  0.84670E-02  0.88300E-02  0.82919E-02
  0.72225E-02  0.58302E-02  0.42825E-02  0.26332E-02  0.10009E-02  0.16891E-04
 -0.93600E-03 -0.11369E-02 -0.52123E-03  0.59547E-03  0.16730E-02  0.24682E-02
  0.28671E-02  0.29637E-02  0.27663E-02  0.23796E-02  0.19912E-02  0.19050E-02
  0.19679E-02  0.32457E-02  0.56401E-02  0.84117E-02  0.10571E-01  0.11537E-01
  0.11489E-01  0.10752E-01  0.95725E-02  0.79712E-02  0.61305E-02  0.41954E-02
 -0.74182E-03 -0.62265E-03 -0.27372E-03  0.24541E-03  0.67894E-03  0.81186E-03
  0.53784E-03 -0.18410E-04 -0.72257E-03 -0.15087E-02 -0.24514E-02 -0.33537E-02
 -0.42907E-02 -0.47331E-02 -0.41942E-02 -0.28748E-02 -0.99037E-04  0.30573E-02
  0.54309E-02  0.64359E-02  0.63620E-02  0.57486E-02  0.48146E-02  0.36639E-02
  0.24503E-02  0.11372E-02 -0.93279E-04 -0.74412E-03 -0.11884E-02 -0.79607E-03
  0.29052E-03  0.14581E-02  0.23077E-02  0.27307E-02  0.28072E-02  0.25890E-02
  0.20854E-02  0.14175E-02  0.74978E-03  0.51998E-03  0.58874E-03  0.19053E-02
  0.41825E-02  0.65333E-02  0.80774E-02  0.85565E-02  0.82685E-02  0.75514E-02
  0.64680E-02  0.51111E-02  0.36461E-02  0.19835E-02 -0.65447E-03 -0.46641E-03
  0.11478E-03  0.85801E-03  0.14335E-02  0.14839E-02  0.10244E-02  0.29421E-03
 -0.45403E-03 -0.14121E-02 -0.24179E-02 -0.35824E-02 -0.47899E-02 -0.53185E-02
 -0.46204E-02 -0.27829E-02  0.48066E-03  0.33355E-02  0.48428E-02  0.51516E-02
  0.47623E-02  0.41077E-02  0.31897E-02  0.22266E-02  0.11953E-02  0.66788E-04
 -0.84581E-03 -0.11715E-02 -0.10297E-02  0.16663E-04  0.13245E-02  0.22280E-02
  0.26672E-02  0.26640E-02  0.23799E-02  0.17880E-02  0.97187E-03 -0.67826E-04
 -0.10082E-02 -0.11105E-02 -0.72869E-03  0.13237E-02  0.39292E-02  0.59618E-02
  0.68819E-02  0.68566E-02  0.63049E-02  0.55053E-02  0.43580E-02  0.31137E-02
  0.17552E-02  0.18409E-03 -0.51344E-03 -0.25423E-03  0.60412E-03  0.17395E-02
  0.23478E-02  0.21699E-02  0.14675E-02  0.68014E-03 -0.17196E-03 -0.11993E-02
 -0.22811E-02 -0.36579E-02 -0.48722E-02 -0.52386E-02 -0.42658E-02 -0.15283E-02
  0.20723E-02  0.40945E-02  0.46098E-02  0.43446E-02  0.37547E-02  0.30003E-02
  0.20975E-02  0.12227E-02  0.24070E-03 -0.67504E-03 -0.11571E-02 -0.11649E-02
 -0.40776E-03  0.11437E-02  0.22387E-02  0.26074E-02  0.25743E-02  0.22189E-02
  0.15555E-02  0.55610E-03 -0.72459E-03 -0.22108E-02 -0.31188E-02 -0.23571E-02
 -0.13728E-02  0.16471E-02  0.44942E-02  0.59532E-02  0.62301E-02  0.57876E-02
  0.50446E-02  0.40670E-02  0.28335E-02  0.15544E-02  0.11232E-03 -0.12784E-02
 -0.25579E-03  0.19423E-03  0.16634E-02  0.29877E-02  0.32437E-02  0.27463E-02
  0.18880E-02  0.11212E-02  0.25288E-03 -0.71583E-03 -0.18032E-02 -0.29882E-02
 -0.37851E-02 -0.35480E-02 -0.22892E-02  0.95023E-03  0.37991E-02  0.46441E-02
  0.44348E-02  0.37896E-02  0.30642E-02  0.22412E-02  0.13237E-02  0.39309E-03
 -0.51881E-03 -0.10680E-02 -0.11961E-02 -0.90098E-03  0.36944E-03  0.19157E-02
  0.24379E-02  0.23715E-02  0.20314E-02  0.13598E-02  0.30666E-03 -0.11742E-02
 -0.30305E-02 -0.48076E-02 -0.52069E-02 -0.36503E-02 -0.22019E-02  0.17573E-02
  0.47291E-02  0.56439E-02  0.55524E-02  0.50013E-02  0.41191E-02  0.29027E-02
  0.15340E-02  0.48683E-04 -0.13932E-02 -0.22016E-02  0.10602E-03  0.62303E-03
  0.21721E-02  0.32177E-02  0.32524E-02  0.27246E-02  0.19784E-02  0.13647E-02
  0.60489E-03 -0.21608E-03 -0.11291E-02 -0.19747E-02 -0.23373E-02 -0.17935E-02
 -0.61609E-03  0.22178E-02  0.42874E-02  0.47243E-02  0.44648E-02  0.39726E-02
  0.35120E-02  0.29581E-02  0.23370E-02  0.17270E-02  0.11489E-02  0.64895E-03
  0.57032E-04  0.91957E-04  0.85230E-03  0.18220E-02  0.19619E-02  0.17467E-02
  0.12899E-02  0.49806E-03 -0.69093E-03 -0.23185E-02 -0.43121E-02 -0.60093E-02
 -0.61995E-02 -0.44425E-02 -0.26933E-02  0.18071E-02  0.47731E-02  0.55694E-02
  0.54954E-02  0.50281E-02  0.41772E-02  0.30513E-02  0.18387E-02  0.56651E-03
 -0.54339E-03 -0.11367E-02  0.12577E-02  0.19367E-02  0.33598E-02  0.38013E-02
  0.35495E-02  0.30249E-02  0.25325E-02  0.20581E-02  0.14266E-02  0.84625E-03
  0.30331E-03  0.29803E-03  0.90276E-03  0.18995E-02  0.27605E-02  0.43375E-02
  0.50195E-02  0.48772E-02  0.44970E-02  0.41195E-02  0.36633E-02  0.29889E-02
  0.22917E-02  0.16481E-02  0.11980E-02  0.70974E-03  0.18289E-03  0.50196E-03
  0.10933E-02  0.15094E-02  0.14322E-02  0.10765E-02  0.35433E-03 -0.82759E-03
 -0.24998E-02 -0.45324E-02 -0.67496E-02 -0.83182E-02 -0.83042E-02 -0.57191E-02
 -0.33223E-02  0.14599E-02  0.40179E-02  0.48879E-02  0.49774E-02  0.44730E-02
  0.33837E-02  0.20651E-02  0.69467E-03 -0.55050E-03 -0.14565E-02 -0.17131E-02
  0.22894E-02  0.27842E-02  0.36363E-02  0.37169E-02  0.35493E-02  0.33551E-02
  0.32236E-02  0.28987E-02  0.24780E-02  0.21401E-02  0.20918E-02  0.27241E-02
  0.36702E-02  0.43247E-02  0.46899E-02  0.51447E-02  0.51098E-02  0.48802E-02
  0.47516E-02  0.45644E-02  0.39861E-02  0.30776E-02  0.22047E-02  0.15112E-02
  0.10320E-02  0.52065E-03  0.29345E-03  0.71043E-03  0.96671E-03  0.10489E-02
  0.88227E-03  0.40336E-03 -0.60810E-03 -0.22102E-02 -0.42348E-02 -0.63286E-02