       #
       # Generated by the Wannier90 code http://www.wannier.org
       # On 15Jun2023 at 10:39:46 
       #
CRYSTAL
PRIMVEC
   0.0000000   2.7152650   2.7152650
   2.7152650   0.0000000   2.7152650
   2.7152650   2.7152650   0.0000000
CONVVEC
   0.0000000   2.7152650   2.7152650
   2.7152650   0.0000000   2.7152650
   2.7152650   2.7152650   0.0000000
PRIMCOORD
     2  1
Si      0.0000000   0.0000000   0.0000000
Si      1.3576325   1.3576325   1.3576325


BEGIN_BLOCK_DATAGRID_3D
3D_field
BEGIN_DATAGRID_3D_UNKNOWN
    52    52    52
  -11.278793  -11.278793  -11.278793
   0.0000000  10.6521935  10.6521935
  10.6521935   0.0000000  10.6521935
  10.6521935  10.6521935   0.0000000
 -0.85217E-03 -0.34972E-03  0.75736E-03  0.12326E-02  0.11443E-02  0.95585E-03
  0.74313E-03  0.56691E-03  0.44101E-03  0.34027E-03  0.33574E-03  0.35491E-03
  0.43454E-03  0.46977E-03  0.36557E-03  0.28071E-03  0.17746E-03  0.78629E-04
  0.10015E-03  0.17213E-03  0.30304E-03  0.49455E-03  0.69949E-03  0.95227E-03
  0.11649E-02  0.13057E-02  0.10696E-02  0.61217E-03 -0.93631E-03 -0.22827E-02
 -0.26842E-02 -0.23731E-02 -0.18736E-02 -0.14306E-02 -0.11235E-02 -0.89225E-03
 -0.74171E-03 -0.65429E-03 -0.51324E-03 -0.25566E-03  0.10612E-03  0.12578E-02
  0.22895E-02  0.24881E-02  0.20978E-02  0.15040E-02  0.94967E-03  0.50318E-03
  0.14324E-03 -0.11799E-03 -0.31159E-03 -0.33772E-03 -0.34976E-03  0.52113E-04
  0.66417E-03  0.88084E-03  0.84901E-03  0.70563E-03  0.51950E-03  0.40292E-03
  0.28763E-03  0.22242E-03  0.23508E-03  0.26526E-03  0.39000E-03  0.49240E-03
  0.50574E-03  0.45477E-03  0.30813E-03  0.16750E-03  0.14022E-03  0.12576E-03
  0.17377E-03  0.25710E-03  0.32560E-03  0.43516E-03  0.49477E-03  0.47838E-03
  0.28344E-03  0.20571E-05 -0.68994E-03 -0.12428E-02 -0.13259E-02 -0.10680E-02
 -0.80041E-03 -0.59808E-03 -0.50143E-03 -0.41802E-03 -0.37413E-03 -0.32836E-03
 -0.18114E-03  0.10082E-03  0.42224E-03  0.13439E-02  0.20732E-02  0.21322E-02
  0.17436E-02  0.12310E-02  0.83329E-03  0.58635E-03  0.44570E-03  0.44499E-03
  0.50999E-03  0.52274E-03  0.75718E-03  0.66403E-03  0.47252E-03  0.50396E-03
  0.49514E-03  0.39918E-03  0.32262E-03  0.27104E-03  0.21315E-03  0.20755E-03
  0.26574E-03  0.40143E-03  0.55912E-03  0.71394E-03  0.73965E-03  0.59088E-03
  0.40535E-03  0.24980E-03  0.18248E-03  0.16945E-03  0.19763E-03  0.20298E-03
  0.21482E-03  0.22589E-03  0.15991E-03  0.10854E-03  0.30246E-03  0.35895E-03
  0.15827E-03 -0.19052E-03 -0.19184E-03  0.26692E-04  0.21113E-03  0.33363E-03
  0.34212E-03  0.32129E-03  0.26826E-03  0.33304E-03  0.45900E-03  0.41989E-03
  0.51333E-03  0.93046E-03  0.13304E-02  0.12060E-02  0.75409E-03  0.28461E-03
 -0.16331E-04 -0.19517E-03 -0.24190E-03 -0.11657E-03 -0.32789E-04 -0.62578E-04
  0.12323E-02  0.88059E-03  0.50385E-03  0.36821E-03  0.29920E-03  0.26953E-03
  0.24392E-03  0.24108E-03  0.21911E-03  0.23171E-03  0.36213E-03  0.50609E-03
  0.66235E-03  0.76305E-03  0.72622E-03  0.58335E-03  0.42870E-03  0.28888E-03
  0.26287E-03  0.25293E-03  0.20667E-03  0.16670E-03  0.11833E-03  0.89721E-04
  0.14801E-03  0.47657E-03  0.10267E-02  0.11746E-02  0.10417E-02  0.96759E-03
  0.11541E-02  0.14092E-02  0.15108E-02  0.14550E-02  0.12361E-02  0.99190E-03
  0.79818E-03  0.72536E-03  0.47219E-03  0.98470E-04  0.14052E-03  0.28637E-03
  0.25758E-03 -0.12920E-03 -0.63486E-03 -0.10665E-02 -0.12765E-02 -0.12549E-02
 -0.10571E-02 -0.83017E-03 -0.73571E-03 -0.73880E-03  0.11440E-02  0.84875E-03
  0.49499E-03  0.29914E-03  0.24342E-03  0.23925E-03  0.27178E-03  0.25210E-03
  0.23444E-03  0.26976E-03  0.37299E-03  0.51093E-03  0.61476E-03  0.64198E-03
  0.59427E-03  0.48324E-03  0.39562E-03  0.36167E-03  0.35609E-03  0.32113E-03
  0.21966E-03  0.14057E-03  0.10285E-03  0.19018E-03  0.44334E-03  0.93382E-03
  0.14146E-02  0.16133E-02  0.18675E-02  0.22660E-02  0.27045E-02  0.29544E-02
  0.28379E-02  0.24448E-02  0.18796E-02  0.13530E-02  0.90884E-03  0.51022E-03
  0.51762E-04 -0.30160E-03 -0.33970E-03 -0.65723E-03 -0.11197E-02 -0.17671E-02
 -0.23976E-02 -0.27538E-02 -0.26973E-02 -0.23064E-02 -0.18045E-02 -0.13975E-02
 -0.11625E-02 -0.10041E-02  0.95559E-03  0.70540E-03  0.39903E-03  0.26944E-03
  0.23922E-03  0.31911E-03  0.33013E-03  0.26889E-03  0.25817E-03  0.26695E-03
  0.35340E-03  0.43615E-03  0.48311E-03  0.52217E-03  0.46513E-03  0.42299E-03
  0.44110E-03  0.45366E-03  0.47107E-03  0.38499E-03  0.21592E-03  0.15038E-03
  0.18430E-03  0.38439E-03  0.73322E-03  0.12554E-02  0.18080E-02  0.22047E-02
  0.29004E-02  0.36428E-02  0.42057E-02  0.42759E-02  0.37565E-02  0.28860E-02
  0.19372E-02  0.11419E-02  0.52883E-03  0.49579E-05 -0.49416E-03 -0.10011E-02
 -0.11866E-02 -0.18511E-02 -0.26828E-02 -0.36174E-02 -0.42273E-02 -0.42510E-02
 -0.37071E-02 -0.28516E-02 -0.20331E-02 -0.14911E-02 -0.11250E-02 -0.91898E-03
  0.74292E-03  0.51930E-03  0.32247E-03  0.24383E-03  0.27175E-03  0.33013E-03
  0.30873E-03  0.25298E-03  0.23204E-03  0.23491E-03  0.27604E-03  0.32368E-03
  0.37657E-03  0.42318E-03  0.37909E-03  0.42584E-03  0.47690E-03  0.52031E-03
  0.47402E-03  0.32005E-03  0.19562E-03  0.18783E-03  0.30435E-03  0.61633E-03
  0.10359E-02  0.16329E-02  0.23411E-02  0.29264E-02  0.39132E-02  0.47858E-02
  0.51905E-02  0.47777E-02  0.37316E-02  0.24927E-02  0.13775E-02  0.55937E-03
 -0.63343E-04 -0.62246E-03 -0.11756E-02 -0.18362E-02 -0.21180E-02 -0.30667E-02
 -0.41713E-02 -0.51099E-02 -0.53995E-02 -0.48826E-02 -0.38166E-02 -0.26654E-02
 -0.17714E-02 -0.12064E-02 -0.86968E-03 -0.80898E-03  0.56673E-03  0.40275E-03
  0.27093E-03  0.24102E-03  0.25211E-03  0.26893E-03  0.25301E-03  0.19568E-03
  0.18132E-03  0.16817E-03  0.19902E-03  0.25391E-03  0.30039E-03  0.39870E-03
  0.35221E-03  0.41393E-03  0.48454E-03  0.46072E-03  0.35767E-03  0.24907E-03
  0.19758E-03  0.26605E-03  0.47635E-03  0.84881E-03  0.13455E-02  0.20371E-02
  0.29011E-02  0.36093E-02  0.46291E-02  0.52733E-02  0.51476E-02  0.41656E-02
  0.27953E-02  0.14666E-02  0.47024E-03 -0.22037E-03 -0.73607E-03 -0.11846E-02
 -0.17579E-02 -0.25666E-02 -0.29078E-02 -0.40027E-02 -0.50908E-02 -0.56794E-02
 -0.54171E-02 -0.43908E-02 -0.30655E-02 -0.19188E-02 -0.11109E-02 -0.63890E-03
 -0.47313E-03 -0.57802E-03  0.44088E-03  0.28751E-03  0.21309E-03  0.21912E-03
  0.23451E-03  0.25825E-03  0.23210E-03  0.18135E-03  0.15940E-03  0.13953E-03
  0.16527E-03  0.22017E-03  0.31970E-03  0.43272E-03  0.36301E-03  0.44306E-03
  0.45376E-03  0.36419E-03  0.25799E-03  0.17217E-03  0.19626E-03  0.36293E-03
  0.63606E-03  0.10817E-02  0.16638E-02  0.24343E-02  0.33414E-02  0.40125E-02
  0.47632E-02  0.48813E-02  0.40849E-02  0.26762E-02  0.12300E-02  0.13299E-03
 -0.53032E-03 -0.94930E-03 -0.12483E-02 -0.16029E-02 -0.21976E-02 -0.30264E-02
 -0.33554E-02 -0.43832E-02 -0.51165E-02 -0.50998E-02 -0.42774E-02 -0.29860E-02
 -0.17146E-02 -0.81029E-03 -0.24423E-03  0.13367E-04 -0.73495E-05 -0.28335E-03
  0.34019E-03  0.22235E-03  0.20755E-03  0.23179E-03  0.26989E-03  0.26708E-03
  0.23500E-03  0.16823E-03  0.13956E-03  0.12629E-03  0.16125E-03  0.24993E-03
  0.36078E-03  0.48339E-03  0.40473E-03  0.43750E-03  0.39253E-03  0.27017E-03
  0.16583E-03  0.13511E-03  0.23773E-03  0.47388E-03  0.80902E-03  0.13167E-02
  0.19583E-02  0.27557E-02  0.35408E-02  0.40486E-02  0.43239E-02  0.36976E-02
  0.22513E-02  0.63796E-03 -0.57373E-03 -0.12115E-02 -0.14180E-02 -0.14712E-02
 -0.15342E-02 -0.17690E-02 -0.22856E-02 -0.30338E-02 -0.32911E-02 -0.40477E-02
 -0.42937E-02 -0.36885E-02 -0.24680E-02 -0.11690E-02 -0.19552E-03  0.35692E-03
  0.61809E-03  0.63554E-03  0.45551E-03  0.83879E-04  0.33570E-03  0.23506E-03
  0.26581E-03  0.36228E-03  0.37318E-03  0.35356E-03  0.27615E-03  0.19908E-03
  0.16530E-03  0.16125E-03  0.22571E-03  0.33787E-03  0.46596E-03  0.60568E-03
  0.48480E-03  0.47147E-03  0.38366E-03  0.19594E-03  0.11070E-03  0.11724E-03
  0.29427E-03  0.58393E-03  0.99000E-03  0.15366E-02  0.21890E-02  0.29281E-02
  0.35048E-02  0.37215E-02  0.33200E-02  0.18728E-02 -0.13636E-03 -0.17227E-02
 -0.23906E-02 -0.23373E-02 -0.19923E-02 -0.16593E-02 -0.14694E-02 -0.15389E-02
 -0.18924E-02 -0.25180E-02 -0.26895E-02 -0.31815E-02 -0.28957E-02 -0.16419E-02
 -0.17411E-03  0.85811E-03  0.13437E-02  0.14871E-02  0.14312E-02  0.12715E-02
  0.99840E-03  0.59062E-03  0.35491E-03  0.26528E-03  0.40156E-03  0.50630E-03
  0.51113E-03  0.43630E-03  0.32378E-03  0.25396E-03  0.22019E-03  0.24994E-03
  0.33788E-03  0.47035E-03  0.61987E-03  0.73160E-03  0.58090E-03  0.51546E-03
  0.30440E-03  0.80769E-04  0.12825E-04  0.11665E-03  0.36515E-03  0.71366E-03
  0.11537E-02  0.16673E-02  0.22807E-02  0.29027E-02  0.31724E-02  0.30585E-02
  0.19555E-02 -0.55839E-03 -0.30488E-02 -0.40828E-02 -0.37661E-02 -0.29518E-02
 -0.21143E-02 -0.13955E-02 -0.91515E-03 -0.73717E-03 -0.90860E-03 -0.15014E-02
 -0.17069E-02 -0.20748E-02 -0.94666E-03  0.10785E-02  0.24107E-02  0.27756E-02
  0.26429E-02  0.23938E-02  0.21217E-02  0.18423E-02  0.15721E-02  0.12158E-02
  0.43455E-03  0.39003E-03  0.55926E-03  0.66253E-03  0.61491E-03  0.48322E-03
  0.37663E-03  0.30042E-03  0.31971E-03  0.36081E-03  0.46598E-03  0.61988E-03
  0.76034E-03  0.82960E-03  0.64919E-03  0.45498E-03  0.16787E-03 -0.60628E-04
 -0.47743E-04  0.15230E-03  0.45254E-03  0.82197E-03  0.12251E-02  0.17016E-02
  0.21873E-02  0.25258E-02  0.25072E-02  0.19992E-02 -0.27642E-03 -0.37808E-02
 -0.58222E-02 -0.56729E-02 -0.43726E-02 -0.29101E-02 -0.15787E-02 -0.52207E-03
  0.21560E-03  0.65101E-03  0.67373E-03 -0.11248E-03 -0.45575E-03 -0.31736E-03
  0.19938E-02  0.40602E-02  0.44932E-02  0.40340E-02  0.33963E-02  0.28901E-02
  0.24665E-02  0.21804E-02  0.20048E-02  0.17412E-02  0.46972E-03  0.49239E-03
  0.71401E-03  0.76314E-03  0.64206E-03  0.52222E-03  0.42321E-03  0.39872E-03
  0.43274E-03  0.48341E-03  0.60571E-03  0.73163E-03  0.82963E-03  0.76833E-03
  0.57408E-03  0.25662E-03 -0.77178E-04 -0.23223E-03 -0.80318E-04  0.20302E-03
  0.54624E-03  0.87793E-03  0.12121E-02  0.14753E-02  0.16176E-02  0.15281E-02
  0.93625E-03 -0.23304E-03 -0.34316E-02 -0.65437E-02 -0.72418E-02 -0.58693E-02
 -0.38187E-02 -0.19346E-02 -0.39127E-03  0.83856E-03  0.18538E-02  0.26169E-02
  0.27166E-02  0.17633E-02  0.15671E-02  0.27123E-02  0.51385E-02  0.59878E-02
  0.53575E-02  0.43287E-02  0.34574E-02  0.28168E-02  0.23481E-02  0.21351E-02
  0.20477E-02  0.18847E-02  0.36549E-03  0.50570E-03  0.73969E-03  0.72627E-03
  0.59431E-03  0.46516E-03  0.37910E-03  0.35221E-03  0.36302E-03  0.40475E-03
  0.48484E-03  0.58094E-03  0.64924E-03  0.57410E-03  0.43715E-03  0.73238E-04
 -0.26331E-03 -0.36330E-03 -0.20497E-03  0.19793E-04  0.25119E-03  0.44422E-03
  0.56590E-03  0.56263E-03  0.45442E-03  0.13400E-03 -0.39503E-03 -0.12092E-02
 -0.27239E-02 -0.39793E-02 -0.38082E-02 -0.24688E-02 -0.89512E-03  0.47260E-03
  0.16037E-02  0.25869E-02  0.34949E-02  0.42205E-02  0.41460E-02  0.29628E-02
  0.26913E-02  0.40831E-02  0.61747E-02  0.64687E-02  0.56321E-02  0.47340E-02
  0.42140E-02  0.40331E-02  0.41893E-02  0.47195E-02  0.52660E-02  0.49749E-02
  0.28061E-03  0.45471E-03  0.59084E-03  0.58333E-03  0.48322E-03  0.42297E-03
  0.42582E-03  0.41391E-03  0.44307E-03  0.43752E-03  0.47151E-03  0.51551E-03
  0.45502E-03  0.25661E-03  0.73213E-04 -0.27118E-03 -0.43301E-03 -0.37560E-03
 -0.15458E-03  0.44910E-04  0.23222E-03  0.30543E-03  0.23302E-03  0.41434E-04
 -0.35690E-03 -0.67006E-03 -0.62925E-03 -0.10947E-02 -0.20925E-02 -0.26809E-02
 -0.18692E-02 -0.31345E-03  0.11954E-02  0.25056E-02  0.35058E-02  0.42249E-02
  0.48896E-02  0.53463E-02  0.46953E-02  0.34292E-02  0.33961E-02  0.48236E-02
  0.58407E-02  0.53126E-02  0.43103E-02  0.35872E-02  0.32161E-02  0.31556E-02
  0.34713E-02  0.41006E-02  0.44441E-02  0.36985E-02  0.17739E-03  0.30807E-03
  0.40529E-03  0.42865E-03  0.39557E-03  0.44105E-03  0.47686E-03  0.48453E-03
  0.45376E-03  0.39255E-03  0.38369E-03  0.30442E-03  0.16785E-03 -0.77240E-04
 -0.26337E-03 -0.43304E-03 -0.45246E-03 -0.28181E-03 -0.64356E-04  0.12258E-03
  0.21464E-03  0.13711E-03 -0.33416E-04 -0.34714E-03 -0.52830E-03 -0.13783E-03
  0.31208E-03  0.11874E-04 -0.45097E-03 -0.99332E-04  0.11987E-02  0.27681E-02
  0.40300E-02  0.47306E-02  0.47825E-02  0.47056E-02  0.48122E-02  0.45602E-02
  0.33229E-02  0.24838E-02  0.26683E-02  0.34984E-02  0.34204E-02  0.25064E-02
  0.16233E-02  0.10835E-02  0.87722E-03  0.10386E-02  0.15811E-02  0.22511E-02
  0.23801E-02  0.20117E-02  0.78564E-04  0.16743E-03  0.24974E-03  0.28880E-03
  0.36160E-03  0.45360E-03  0.52027E-03  0.46070E-03  0.36419E-03  0.27018E-03
  0.19594E-03  0.80746E-04 -0.60688E-04 -0.23230E-03 -0.36337E-03 -0.37564E-03
 -0.28183E-03 -0.92566E-04  0.81736E-04  0.21606E-03  0.17113E-03  0.40122E-04
 -0.12084E-03 -0.13891E-03  0.19306E-03  0.86798E-03  0.14797E-02  0.16156E-02
  0.22811E-02  0.35252E-02  0.50858E-02  0.62990E-02  0.64695E-02  0.55781E-02
  0.43522E-02  0.35335E-02  0.29785E-02  0.22108E-02  0.12414E-02  0.90944E-03
  0.92297E-03  0.61918E-03 -0.31579E-03 -0.15367E-02 -0.24474E-02 -0.28392E-02
 -0.26826E-02 -0.19835E-02 -0.94821E-03 -0.89616E-04  0.38031E-03  0.83577E-03
  0.10009E-03  0.14015E-03  0.18241E-03  0.26280E-03  0.35602E-03  0.47103E-03
  0.47400E-03  0.35766E-03  0.25798E-03  0.16582E-03  0.11068E-03  0.12779E-04
 -0.47810E-04 -0.80390E-04 -0.20503E-03 -0.15462E-03 -0.64382E-04  0.81726E-04
  0.20366E-03  0.25408E-03  0.18357E-03  0.14389E-03  0.31249E-03  0.72785E-03
  0.14718E-02  0.25743E-02  0.37730E-02  0.45369E-02  0.60927E-02  0.77510E-02
  0.89706E-02  0.88001E-02  0.68241E-02  0.40540E-02  0.18359E-02  0.52540E-03
 -0.23174E-03 -0.82892E-03 -0.13561E-02 -0.18716E-02 -0.21289E-02 -0.32889E-02
 -0.49776E-02 -0.66826E-02 -0.76931E-02 -0.76501E-02 -0.65817E-02 -0.48853E-02
 -0.32538E-02 -0.21035E-02 -0.13130E-02 -0.66996E-03  0.17207E-03  0.12569E-03
  0.16939E-03  0.25288E-03  0.32109E-03  0.38496E-03  0.32003E-03  0.24906E-03
  0.17216E-03  0.13509E-03  0.11721E-03  0.11660E-03  0.15223E-03  0.20296E-03
  0.19740E-04  0.44866E-04  0.12255E-03  0.21604E-03  0.25408E-03  0.27729E-03
  0.30926E-03  0.62675E-03  0.12027E-02  0.21497E-02  0.35184E-02  0.51707E-02
  0.70141E-02  0.83425E-02  0.10314E-01  0.11584E-01  0.11203E-01  0.83269E-02
  0.39319E-02  0.19566E-04 -0.23099E-02 -0.33423E-02 -0.37490E-02 -0.40122E-02
 -0.44421E-02 -0.53644E-02 -0.57239E-02 -0.76368E-02 -0.10076E-01 -0.12070E-01
 -0.12708E-01 -0.11548E-01 -0.92313E-02 -0.67069E-02 -0.48395E-02 -0.37098E-02
 -0.31316E-02 -0.28526E-02  0.30300E-03  0.17373E-03  0.19760E-03  0.20664E-03
  0.21964E-03  0.21591E-03  0.19561E-03  0.19757E-03  0.19624E-03  0.23772E-03
  0.29424E-03  0.36510E-03  0.45248E-03  0.54618E-03  0.25114E-03  0.23218E-03
  0.21462E-03  0.17113E-03  0.18358E-03  0.30927E-03  0.73239E-03  0.14769E-02
  0.25971E-02  0.41804E-02  0.61291E-02  0.84815E-02  0.10946E-01  0.12586E-01
  0.14184E-01  0.13806E-01  0.10356E-01  0.44114E-02 -0.15211E-02 -0.54071E-02
 -0.70066E-02 -0.72965E-02 -0.71244E-02 -0.70525E-02 -0.75315E-02 -0.88154E-02
 -0.91698E-02 -0.11699E-01 -0.14371E-01 -0.15923E-01 -0.15381E-01 -0.12950E-01
 -0.98513E-02 -0.72812E-02 -0.58065E-02 -0.52401E-02 -0.53699E-02 -0.57737E-02
  0.49453E-03  0.25708E-03  0.20296E-03  0.16669E-03  0.14056E-03  0.15037E-03
  0.18783E-03  0.26604E-03  0.36291E-03  0.47386E-03  0.58390E-03  0.71361E-03
  0.82192E-03  0.87787E-03  0.44418E-03  0.30539E-03  0.13710E-03  0.40136E-04
  0.14392E-03  0.62678E-03  0.14769E-02  0.27481E-02  0.45046E-02  0.67261E-02
  0.95010E-02  0.12567E-01  0.15436E-01  0.17040E-01  0.17271E-01  0.13816E-01
  0.65424E-02 -0.19796E-02 -0.84654E-02 -0.11535E-01 -0.12011E-01 -0.11218E-01
 -0.10313E-01 -0.98651E-02 -0.10372E-01 -0.11940E-01 -0.12074E-01 -0.14678E-01
 -0.16791E-01 -0.17096E-01 -0.15187E-01 -0.12035E-01 -0.90914E-02 -0.73227E-02
 -0.67909E-02 -0.73908E-02 -0.86597E-02 -0.10111E-01  0.69948E-03  0.32560E-03
  0.21483E-03  0.11834E-03  0.10286E-03  0.18429E-03  0.30435E-03  0.47633E-03
  0.63604E-03  0.80899E-03  0.98996E-03  0.11537E-02  0.12250E-02  0.12121E-02
  0.56586E-03  0.23300E-03 -0.33401E-04 -0.12079E-03  0.31255E-03  0.12028E-02
  0.25971E-02  0.45046E-02  0.69325E-02  0.10035E-01  0.13693E-01  0.17599E-01
  0.20615E-01  0.21684E-01  0.19321E-01  0.11341E-01 -0.40124E-03 -0.11158E-01
 -0.17282E-01 -0.18696E-01 -0.17296E-01 -0.15040E-01 -0.13238E-01 -0.12421E-01
 -0.13011E-01 -0.14679E-01 -0.14247E-01 -0.16345E-01 -0.17198E-01 -0.15964E-01
 -0.13129E-01 -0.10094E-01 -0.81617E-02 -0.76894E-02 -0.87235E-02 -0.10994E-01
 -0.13969E-01 -0.16919E-01  0.95229E-03  0.43519E-03  0.22593E-03  0.89744E-04
  0.19018E-03  0.38439E-03  0.61632E-03  0.84880E-03  0.10817E-02  0.13167E-02
  0.15366E-02  0.16672E-02  0.17015E-02  0.14752E-02  0.56260E-03  0.41440E-04
 -0.34708E-03 -0.13881E-03  0.72796E-03  0.21498E-02  0.41805E-02  0.67261E-02
  0.10035E-01  0.14110E-01  0.18936E-01  0.23706E-01  0.26605E-01  0.26514E-01
  0.19566E-01  0.48715E-02 -0.12365E-01 -0.24630E-01 -0.28643E-01 -0.26644E-01
 -0.22447E-01 -0.18463E-01 -0.15781E-01 -0.14778E-01 -0.15434E-01 -0.17033E-01
 -0.15614E-01 -0.16652E-01 -0.15875E-01 -0.13286E-01 -0.10192E-01 -0.81333E-02
 -0.77713E-02 -0.92395E-02 -0.12437E-01 -0.17081E-01 -0.22638E-01 -0.27647E-01
  0.11650E-02  0.49484E-03  0.15997E-03  0.14803E-03  0.44334E-03  0.73322E-03
  0.10359E-02  0.13455E-02  0.16638E-02  0.19583E-02  0.21890E-02  0.22806E-02
  0.21872E-02  0.16175E-02  0.45439E-03 -0.35686E-03 -0.52817E-03  0.19322E-03
  0.14719E-02  0.35184E-02  0.61291E-02  0.95010E-02  0.13693E-01  0.18936E-01
  0.24938E-01  0.30704E-01  0.32176E-01  0.29484E-01  0.15235E-01 -0.89557E-02
 -0.31821E-01 -0.42347E-01 -0.40935E-01 -0.34075E-01 -0.26910E-01 -0.21269E-01
 -0.17924E-01 -0.16841E-01 -0.17602E-01 -0.18647E-01 -0.15840E-01 -0.15363E-01
 -0.12824E-01 -0.94202E-02 -0.70859E-02 -0.68167E-02 -0.87152E-02 -0.12796E-01
 -0.18999E-01 -0.27145E-01 -0.36329E-01 -0.43724E-01  0.13058E-02  0.47848E-03
  0.10857E-03  0.47656E-03  0.93381E-03  0.12554E-02  0.16329E-02  0.20370E-02
  0.24343E-02  0.27557E-02  0.29280E-02  0.29026E-02  0.25257E-02  0.15280E-02
  0.13397E-03 -0.66998E-03 -0.13764E-03  0.86819E-03  0.25745E-02  0.51708E-02
  0.84815E-02  0.12567E-01  0.17599E-01  0.23706E-01  0.30704E-01  0.35739E-01
  0.34220E-01  0.28726E-01  0.41028E-02 -0.32864E-01 -0.57263E-01 -0.60488E-01
 -0.51504E-01 -0.40056E-01 -0.30356E-01 -0.23450E-01 -0.19641E-01 -0.18592E-01
 -0.18945E-01 -0.18229E-01 -0.13499E-01 -0.10316E-01 -0.70493E-02 -0.49603E-02
 -0.47984E-02 -0.71039E-02 -0.11966E-01 -0.19477E-01 -0.29813E-01 -0.42574E-01
 -0.56200E-01 -0.63681E-01  0.10696E-02  0.28348E-03  0.30242E-03  0.10267E-02
  0.14146E-02  0.18080E-02  0.23412E-02  0.29011E-02  0.33414E-02  0.35408E-02
  0.35047E-02  0.31723E-02  0.25071E-02  0.93616E-03 -0.39506E-03 -0.62912E-03
  0.31232E-03  0.14799E-02  0.37731E-02  0.70142E-02  0.10946E-01  0.15436E-01
  0.20615E-01  0.26605E-01  0.32176E-01  0.34220E-01  0.29751E-01  0.18347E-01
 -0.23564E-01 -0.66841E-01 -0.81556E-01 -0.73672E-01 -0.58340E-01 -0.44104E-01
 -0.32784E-01 -0.24969E-01 -0.20789E-01 -0.19422E-01 -0.18262E-01 -0.13511E-01
 -0.66228E-02 -0.22214E-02 -0.13496E-02 -0.20270E-02 -0.46195E-02 -0.10059E-01
 -0.18584E-01 -0.30425E-01 -0.45416E-01 -0.63176E-01 -0.79411E-01 -0.81583E-01
  0.61221E-03  0.20416E-05  0.35889E-03  0.11746E-02  0.16133E-02  0.22048E-02
  0.29265E-02  0.36094E-02  0.40125E-02  0.40486E-02  0.37214E-02  0.30584E-02
  0.19991E-02 -0.23311E-03 -0.12092E-02 -0.10945E-02  0.12109E-04  0.16158E-02
  0.45370E-02  0.83425E-02  0.12586E-01  0.17040E-01  0.21684E-01  0.26514E-01
  0.29484E-01  0.28726E-01  0.18347E-01  0.76156E-03 -0.48034E-01 -0.85970E-01
 -0.91808E-01 -0.78486E-01 -0.61033E-01 -0.45789E-01 -0.33543E-01 -0.25037E-01
 -0.20504E-01 -0.18725E-01 -0.16454E-01 -0.99057E-02 -0.30684E-02  0.49026E-03
  0.50041E-03 -0.10434E-02 -0.50534E-02 -0.12408E-01 -0.23350E-01 -0.37813E-01
 -0.55296E-01 -0.75277E-01 -0.91489E-01 -0.89262E-01 -0.93630E-03 -0.68996E-03
  0.15828E-03  0.10417E-02  0.18676E-02  0.29005E-02  0.39132E-02  0.46291E-02
  0.47632E-02  0.43239E-02  0.33199E-02  0.19554E-02 -0.27653E-03 -0.34317E-02
 -0.27238E-02 -0.20924E-02 -0.45077E-03  0.22813E-02  0.60928E-02  0.10314E-01
  0.14184E-01  0.17271E-01  0.19321E-01  0.19566E-01  0.15235E-01  0.41029E-02
 -0.23564E-01 -0.48034E-01 -0.90754E-01 -0.10672E+00 -0.98271E-01 -0.81322E-01
 -0.64457E-01 -0.48647E-01 -0.34774E-01 -0.24911E-01 -0.19720E-01 -0.17110E-01
 -0.13340E-01 -0.59956E-02 -0.13507E-02  0.10076E-02  0.77986E-03 -0.24002E-02
 -0.95765E-02 -0.21396E-01 -0.37254E-01 -0.55388E-01 -0.74881E-01 -0.94732E-01
 -0.10608E+00 -0.94324E-01 -0.22827E-02 -0.12427E-02 -0.19047E-03  0.96764E-03
  0.22661E-02  0.36429E-02  0.47859E-02  0.52734E-02  0.48813E-02  0.36975E-02
  0.18727E-02 -0.55848E-03 -0.37809E-02 -0.65436E-02 -0.39792E-02 -0.26808E-02
 -0.99181E-04  0.35253E-02  0.77511E-02  0.11584E-01  0.13806E-01  0.13816E-01
  0.11341E-01  0.48716E-02 -0.89556E-02 -0.32864E-01 -0.66841E-01 -0.85969E-01
 -0.10672E+00 -0.10636E+00 -0.95294E-01 -0.82161E-01 -0.67399E-01 -0.50057E-01
 -0.33900E-01 -0.22989E-01 -0.17594E-01 -0.14790E-01 -0.11283E-01 -0.54145E-02
 -0.27508E-02 -0.21056E-03 -0.11233E-02 -0.66805E-02 -0.18110E-01 -0.35161E-01
 -0.54379E-01 -0.71971E-01 -0.88313E-01 -0.10259E+00 -0.10599E+00 -0.88968E-01
 -0.26841E-02 -0.13258E-02 -0.19180E-03  0.11541E-02  0.27046E-02  0.42058E-02
  0.51906E-02  0.51476E-02  0.40848E-02  0.22512E-02 -0.13643E-03 -0.30488E-02
 -0.58222E-02 -0.72417E-02 -0.38081E-02 -0.18691E-02  0.11988E-02  0.50859E-02
  0.89706E-02  0.11203E-01  0.10356E-01  0.65424E-02 -0.40120E-03 -0.12365E-01
 -0.31821E-01 -0.57263E-01 -0.81556E-01 -0.91808E-01 -0.98271E-01 -0.95294E-01
 -0.89725E-01 -0.81790E-01 -0.66739E-01 -0.46825E-01 -0.29753E-01 -0.19629E-01
 -0.14957E-01 -0.12262E-01 -0.89144E-02 -0.41703E-02 -0.29449E-02 -0.19467E-02
 -0.48250E-02 -0.13603E-01 -0.29717E-01 -0.50159E-01 -0.67574E-01 -0.79071E-01
 -0.88324E-01 -0.94665E-01 -0.91264E-01 -0.74064E-01 -0.23731E-02 -0.10679E-02
  0.26721E-04  0.14093E-02  0.29545E-02  0.42760E-02  0.47777E-02  0.41656E-02
  0.26762E-02  0.63792E-03 -0.17227E-02 -0.40828E-02 -0.56729E-02 -0.58692E-02
 -0.24687E-02 -0.31336E-03  0.27681E-02  0.62991E-02  0.88002E-02  0.83269E-02
  0.44114E-02 -0.19795E-02 -0.11158E-01 -0.24630E-01 -0.42347E-01 -0.60488E-01
 -0.73672E-01 -0.78486E-01 -0.81322E-01 -0.82161E-01 -0.81790E-01 -0.74496E-01
 -0.57242E-01 -0.37746E-01 -0.23516E-01 -0.16093E-01 -0.12763E-01 -0.10359E-01
 -0.73899E-02 -0.41823E-02 -0.41706E-02 -0.46089E-02 -0.93580E-02 -0.20896E-01
 -0.38986E-01 -0.57217E-01 -0.67626E-01 -0.72068E-01 -0.74941E-01 -0.75209E-01
 -0.68467E-01 -0.53838E-01 -0.18736E-02 -0.80041E-03  0.21116E-03  0.15109E-02
  0.28380E-02  0.37566E-02  0.37317E-02  0.27953E-02  0.12300E-02 -0.57376E-03
 -0.23906E-02 -0.37661E-02 -0.43726E-02 -0.38187E-02 -0.89507E-03  0.11954E-02
  0.40301E-02  0.64696E-02  0.68242E-02  0.39320E-02 -0.15211E-02 -0.84653E-02
 -0.17282E-01 -0.28643E-01 -0.40935E-01 -0.51504E-01 -0.58340E-01 -0.61033E-01
 -0.64457E-01 -0.67399E-01 -0.66739E-01 -0.57242E-01 -0.41374E-01 -0.26902E-01
 -0.17721E-01 -0.13533E-01 -0.11502E-01 -0.96660E-02 -0.73850E-02 -0.52168E-02
 -0.56720E-02 -0.68185E-02 -0.12536E-01 -0.23957E-01 -0.38880E-01 -0.50187E-01
 -0.54558E-01 -0.55630E-01 -0.55464E-01 -0.52943E-01 -0.45868E-01 -0.35058E-01
 -0.14306E-02 -0.59808E-03  0.33365E-03  0.14550E-02  0.24448E-02  0.28860E-02
  0.24927E-02  0.14666E-02  0.13298E-03 -0.12115E-02 -0.23373E-02 -0.29518E-02
 -0.29101E-02 -0.19346E-02  0.47263E-03  0.25056E-02  0.47306E-02  0.55781E-02
  0.40540E-02  0.19646E-04 -0.54070E-02 -0.11534E-01 -0.18696E-01 -0.26643E-01
 -0.34075E-01 -0.40055E-01 -0.44104E-01 -0.45789E-01 -0.48647E-01 -0.50057E-01
 -0.46825E-01 -0.37746E-01 -0.26902E-01 -0.18554E-01 -0.14155E-01 -0.12210E-01
 -0.10956E-01 -0.95094E-02 -0.75802E-02 -0.58546E-02 -0.63468E-02 -0.73806E-02
 -0.12089E-01 -0.20386E-01 -0.29483E-01 -0.35301E-01 -0.37646E-01 -0.38252E-01
 -0.37559E-01 -0.34493E-01 -0.28860E-01 -0.21568E-01 -0.11235E-02 -0.50144E-03
  0.34212E-03  0.12361E-02  0.18797E-02  0.19372E-02  0.13775E-02  0.47022E-03
 -0.53033E-03 -0.14180E-02 -0.19923E-02 -0.21143E-02 -0.15787E-02 -0.39128E-03
  0.16037E-02  0.35058E-02  0.47825E-02  0.43523E-02  0.18359E-02 -0.23098E-02
 -0.70065E-02 -0.12011E-01 -0.17296E-01 -0.22447E-01 -0.26910E-01 -0.30356E-01
 -0.32784E-01 -0.33543E-01 -0.34774E-01 -0.33900E-01 -0.29753E-01 -0.23516E-01
 -0.17721E-01 -0.14155E-01 -0.12517E-01 -0.11593E-01 -0.10731E-01 -0.92741E-02
 -0.73673E-02 -0.54790E-02 -0.56124E-02 -0.56089E-02 -0.81173E-02 -0.12802E-01
 -0.17984E-01 -0.21832E-01 -0.24049E-01 -0.24959E-01 -0.24299E-01 -0.21751E-01
 -0.17752E-01 -0.12822E-01 -0.89227E-03 -0.41804E-03  0.32128E-03  0.99190E-03
  0.13530E-02  0.11419E-02  0.55936E-03 -0.22039E-03 -0.94931E-03 -0.14712E-02
 -0.16593E-02 -0.13955E-02 -0.52211E-03  0.83851E-03  0.25869E-02  0.42248E-02
  0.47056E-02  0.35336E-02  0.52546E-03 -0.33422E-02 -0.72964E-02 -0.11218E-01
 -0.15040E-01 -0.18463E-01 -0.21269E-01 -0.23450E-01 -0.24969E-01 -0.25037E-01
 -0.24911E-01 -0.22989E-01 -0.19629E-01 -0.16093E-01 -0.13533E-01 -0.12210E-01
 -0.11593E-01 -0.11062E-01 -0.10088E-01 -0.84372E-02 -0.61849E-02 -0.37163E-02
 -0.34146E-02 -0.22538E-02 -0.30373E-02 -0.59304E-02 -0.98332E-02 -0.13279E-01
 -0.15537E-01 -0.16376E-01 -0.15719E-01 -0.13746E-01 -0.10724E-01 -0.71326E-02
 -0.74173E-03 -0.37415E-03  0.26825E-03  0.79816E-03  0.90883E-03  0.52881E-03
 -0.63366E-04 -0.73610E-03 -0.12484E-02 -0.15342E-02 -0.14694E-02 -0.91521E-03
  0.21550E-03  0.18537E-02  0.34947E-02  0.48895E-02  0.48122E-02  0.29785E-02
 -0.23166E-03 -0.37489E-02 -0.71243E-02 -0.10313E-01 -0.13238E-01 -0.15781E-01
 -0.17924E-01 -0.19640E-01 -0.20789E-01 -0.20504E-01 -0.19720E-01 -0.17594E-01
 -0.14957E-01 -0.12763E-01 -0.11502E-01 -0.10956E-01 -0.10731E-01 -0.10088E-01
 -0.88625E-02 -0.67766E-02 -0.39427E-02 -0.82956E-03 -0.22768E-03  0.13926E-02
  0.78175E-03 -0.21041E-02 -0.59114E-02 -0.91251E-02 -0.11020E-01 -0.11478E-01
 -0.10656E-01 -0.88156E-02 -0.62103E-02 -0.31734E-02 -0.65429E-03 -0.32836E-03
  0.33303E-03  0.72534E-03  0.51020E-03  0.49341E-05 -0.62249E-03 -0.11847E-02
 -0.16030E-02 -0.17691E-02 -0.15389E-02 -0.73728E-03  0.65085E-03  0.26167E-02
  0.42203E-02  0.53462E-02  0.45602E-02  0.22109E-02 -0.82882E-03 -0.40120E-02
 -0.70524E-02 -0.98650E-02 -0.12421E-01 -0.14778E-01 -0.16841E-01 -0.18592E-01
 -0.19422E-01 -0.18725E-01 -0.17110E-01 -0.14789E-01 -0.12262E-01 -0.10359E-01
 -0.96660E-02 -0.95093E-02 -0.92741E-02 -0.84372E-02 -0.67766E-02 -0.41582E-02
 -0.79755E-03  0.23820E-02  0.25916E-02  0.34724E-02  0.20976E-02 -0.15451E-02
 -0.54156E-02 -0.80446E-02 -0.91726E-02 -0.89412E-02 -0.76519E-02 -0.55938E-02
 -0.29503E-02  0.10358E-04 -0.51322E-03 -0.18113E-03  0.45898E-03  0.47216E-03
  0.51734E-04 -0.49418E-03 -0.11756E-02 -0.17579E-02 -0.21976E-02 -0.22856E-02
 -0.18925E-02 -0.90878E-03  0.67350E-03  0.27163E-02  0.41457E-02  0.46952E-02
  0.33230E-02  0.12415E-02 -0.13560E-02 -0.44420E-02 -0.75314E-02 -0.10372E-01
 -0.13011E-01 -0.15434E-01 -0.17602E-01 -0.18945E-01 -0.18262E-01 -0.16454E-01
 -0.13340E-01 -0.11283E-01 -0.89142E-02 -0.73897E-02 -0.73849E-02 -0.75801E-02
 -0.73672E-02 -0.61849E-02 -0.39427E-02 -0.79753E-03  0.22569E-02  0.37552E-02
  0.34018E-02  0.36317E-02  0.51395E-03 -0.40642E-02 -0.72914E-02 -0.88197E-02
 -0.88864E-02 -0.77689E-02 -0.57897E-02 -0.31385E-02 -0.89233E-04  0.27217E-02
 -0.25563E-03  0.10084E-03  0.41988E-03  0.98447E-04 -0.30162E-03 -0.10011E-02
 -0.18363E-02 -0.25666E-02 -0.30265E-02 -0.30339E-02 -0.25181E-02 -0.15016E-02
 -0.11276E-03  0.17631E-02  0.29626E-02  0.34292E-02  0.24839E-02  0.90955E-03
 -0.18714E-02 -0.53643E-02 -0.88153E-02 -0.11940E-01 -0.14679E-01 -0.17033E-01
 -0.18647E-01 -0.18229E-01 -0.13511E-01 -0.99056E-02 -0.59954E-02 -0.54143E-02
 -0.41701E-02 -0.41821E-02 -0.52167E-02 -0.58546E-02 -0.54790E-02 -0.37163E-02
 -0.82950E-03  0.23820E-02  0.37553E-02  0.43601E-02  0.40051E-02  0.14987E-02
 -0.44594E-02 -0.84133E-02 -0.10104E-01 -0.10302E-01 -0.92067E-02 -0.70640E-02
 -0.41173E-02 -0.63232E-03  0.27045E-02  0.46967E-02  0.10615E-03  0.42227E-03
  0.51332E-03  0.14049E-03 -0.33974E-03 -0.11867E-02 -0.21181E-02 -0.29079E-02
 -0.33555E-02 -0.32912E-02 -0.26897E-02 -0.17071E-02 -0.45602E-03  0.15669E-02
  0.26911E-02  0.33961E-02  0.26683E-02  0.92306E-03 -0.21288E-02 -0.57238E-02
 -0.91697E-02 -0.12074E-01 -0.14247E-01 -0.15614E-01 -0.15840E-01 -0.13499E-01
 -0.66227E-02 -0.30683E-02 -0.13506E-02 -0.27506E-02 -0.29447E-02 -0.41704E-02
 -0.56719E-02 -0.63468E-02 -0.56124E-02 -0.34146E-02 -0.22761E-03  0.25917E-02
  0.34019E-02  0.40052E-02  0.33497E-02 -0.14677E-02 -0.77795E-02 -0.10727E-01
 -0.11778E-01 -0.11552E-01 -0.10168E-01 -0.78195E-02 -0.47909E-02 -0.15095E-02
  0.13176E-02  0.29269E-02  0.12579E-02  0.13439E-02  0.93047E-03  0.28635E-03
 -0.65725E-03 -0.18511E-02 -0.30667E-02 -0.40028E-02 -0.43833E-02 -0.40478E-02
 -0.31816E-02 -0.20750E-02 -0.31755E-03  0.27122E-02  0.40830E-02  0.48236E-02
  0.34984E-02  0.61926E-03 -0.32889E-02 -0.76367E-02 -0.11699E-01 -0.14678E-01
 -0.16345E-01 -0.16652E-01 -0.15363E-01 -0.10316E-01 -0.22213E-02  0.49041E-03
  0.10079E-02 -0.21031E-03 -0.19465E-02 -0.46088E-02 -0.68185E-02 -0.73805E-02
 -0.56089E-02 -0.22538E-02  0.13927E-02  0.34725E-02  0.36319E-02  0.14988E-02
 -0.14677E-02 -0.85748E-02 -0.12606E-01 -0.13974E-01 -0.14198E-01 -0.13024E-01
 -0.10436E-01 -0.67254E-02 -0.26706E-02  0.99858E-03  0.36979E-02  0.48641E-02
  0.22896E-02  0.20733E-02  0.13304E-02  0.25756E-03 -0.11197E-02 -0.26828E-02
 -0.41713E-02 -0.50908E-02 -0.51165E-02 -0.42938E-02 -0.28958E-02 -0.94679E-03
  0.19938E-02  0.51385E-02  0.61747E-02  0.58407E-02  0.34205E-02 -0.31571E-03
 -0.49775E-02 -0.10076E-01 -0.14371E-01 -0.16791E-01 -0.17198E-01 -0.15875E-01
 -0.12824E-01 -0.70492E-02 -0.13494E-02  0.50062E-03  0.78011E-03 -0.11231E-02
 -0.48248E-02 -0.93579E-02 -0.12535E-01 -0.12089E-01 -0.81173E-02 -0.30372E-02