written on 31Aug2022 at 09:14:55 
16
0
   0.0000000000000000       2.7152650000000000       2.7152650000000000       2.7152650000000000       0.0000000000000000       2.7152650000000000       2.7152650000000000       2.7152650000000000       0.0000000000000000    
  -1.1570114348285685       1.1570114348285685       1.1570114348285685       1.1570114348285685      -1.1570114348285685       1.1570114348285685       1.1570114348285685       1.1570114348285685      -1.1570114348285685    
64
4 4 4
   0.0000000000000000       0.0000000000000000       0.0000000000000000    
   0.0000000000000000       0.0000000000000000      0.25000000000000000    
   0.0000000000000000       0.0000000000000000      0.50000000000000000    
   0.0000000000000000       0.0000000000000000      0.75000000000000000    
   0.0000000000000000      0.25000000000000000       0.0000000000000000    
   0.0000000000000000      0.25000000000000000      0.25000000000000000    
   0.0000000000000000      0.25000000000000000      0.50000000000000000    
   0.0000000000000000      0.25000000000000000      0.75000000000000000    
   0.0000000000000000      0.50000000000000000       0.0000000000000000    
   0.0000000000000000      0.50000000000000000      0.25000000000000000    
   0.0000000000000000      0.50000000000000000      0.50000000000000000    
   0.0000000000000000      0.50000000000000000      0.75000000000000000    
   0.0000000000000000      0.75000000000000000       0.0000000000000000    
   0.0000000000000000      0.75000000000000000      0.25000000000000000    
   0.0000000000000000      0.75000000000000000      0.50000000000000000    
   0.0000000000000000      0.75000000000000000      0.75000000000000000    
  0.25000000000000000       0.0000000000000000       0.0000000000000000    
  0.25000000000000000       0.0000000000000000      0.25000000000000000    
  0.25000000000000000       0.0000000000000000      0.50000000000000000    
  0.25000000000000000       0.0000000000000000      0.75000000000000000    
  0.25000000000000000      0.25000000000000000       0.0000000000000000    
  0.25000000000000000      0.25000000000000000      0.25000000000000000    
  0.25000000000000000      0.25000000000000000      0.50000000000000000    
  0.25000000000000000      0.25000000000000000      0.75000000000000000    
  0.25000000000000000      0.50000000000000000       0.0000000000000000    
  0.25000000000000000      0.50000000000000000      0.25000000000000000    
  0.25000000000000000      0.50000000000000000      0.50000000000000000    
  0.25000000000000000      0.50000000000000000      0.75000000000000000    
  0.25000000000000000      0.75000000000000000       0.0000000000000000    
  0.25000000000000000      0.75000000000000000      0.25000000000000000    
  0.25000000000000000      0.75000000000000000      0.50000000000000000    
  0.25000000000000000      0.75000000000000000      0.75000000000000000    
  0.50000000000000000       0.0000000000000000       0.0000000000000000    
  0.50000000000000000       0.0000000000000000      0.25000000000000000    
  0.50000000000000000       0.0000000000000000      0.50000000000000000    
  0.50000000000000000       0.0000000000000000      0.75000000000000000    
  0.50000000000000000      0.25000000000000000       0.0000000000000000    
  0.50000000000000000      0.25000000000000000      0.25000000000000000    
  0.50000000000000000      0.25000000000000000      0.50000000000000000    
  0.50000000000000000      0.25000000000000000      0.75000000000000000    
  0.50000000000000000      0.50000000000000000       0.0000000000000000    
  0.50000000000000000      0.50000000000000000      0.25000000000000000    
  0.50000000000000000      0.50000000000000000      0.50000000000000000    
  0.50000000000000000      0.50000000000000000      0.75000000000000000    
  0.50000000000000000      0.75000000000000000       0.0000000000000000    
  0.50000000000000000      0.75000000000000000      0.25000000000000000    
  0.50000000000000000      0.75000000000000000      0.50000000000000000    
  0.50000000000000000      0.75000000000000000      0.75000000000000000    
  0.75000000000000000       0.0000000000000000       0.0000000000000000    
  0.75000000000000000       0.0000000000000000      0.25000000000000000    
  0.75000000000000000       0.0000000000000000      0.50000000000000000    
  0.75000000000000000       0.0000000000000000      0.75000000000000000    
  0.75000000000000000      0.25000000000000000       0.0000000000000000    
  0.75000000000000000      0.25000000000000000      0.25000000000000000    
  0.75000000000000000      0.25000000000000000      0.50000000000000000    
  0.75000000000000000      0.25000000000000000      0.75000000000000000    
  0.75000000000000000      0.50000000000000000       0.0000000000000000    
  0.75000000000000000      0.50000000000000000      0.25000000000000000    
  0.75000000000000000      0.50000000000000000      0.50000000000000000    
  0.75000000000000000      0.50000000000000000      0.75000000000000000    
  0.75000000000000000      0.75000000000000000       0.0000000000000000    
  0.75000000000000000      0.75000000000000000      0.25000000000000000    
  0.75000000000000000      0.75000000000000000      0.50000000000000000    
  0.75000000000000000      0.75000000000000000      0.75000000000000000    
8
8
postwann            
1
   9.9012402889863509    
1
1
1
1
1
1
1
1
1
1
1
1
1
1
1
1
1
1
1
1
1
1
1
1
1
1
1
1
1
1
1
1
1
1
1
1
1
1
1
1
1
1
1
1
1
1
1
1
1
1
1
1
1
1
1
1
1
1
1
1
1
1
1
1
1
1
1
1
1
1
1
1
1
1
1
1
1
1
1
1
1
1
1
1
1
1
1
1
1
1
1
1
1
1
1
1
1
1
1
1
1
1
1
1
1
1
1
1
1
1
1
1
1
1
1
1
1
1
1
1
1
1
1
1
1
1
1
1
1
1
1
1
1
1
1
1
1
1
1
1
1
1
1
1
1
1
1
1
1
1
1
1
1
1
1
1
1
1
1
1
1
1
1
1
1
1
1
1
1
1
1
1
1
1
1
1
1
1
1
1
1
1
1
1
1
1
1
1
1
1
1
1
1
1
1
1
1
1
1
1
1
1
1
1
1
1
1
1
1
1
1
1
1
1
1
1
1
1
1
1
1
1
1
1
1
1
1
1
1
1
1
1
1
1
1
1
1
1
1
1
1
1
1
1
1
1
1
1
1
1
1
1
1
1
1
1
1
1
1
1
1
1
1
1
1
1
1
1
1
1
1
1
1
1
1
1
1
1
1
1
1
1
1
1
1
1
1
1
1
1
1
1
1
1
1
1
1
1
1
1
1
1
1
1
1
1
1
1
1
1
1
1
1
1
1
1
1
1
1
1
1
1
1
1
1
1
1
1
1
1
1
1
1
1
1
1
1
1
1
1
1
1
1
1
1
1
1
1
1
1
1
1
1
1
1
1
1
1
1
1
1
1
1
1
1
1
1
1
1
1
1
1
1
1
1
1
1
1
1
1
1
1
1
1
1
1
1
1
1
1
1
1
1
1
1
1
1
1
1
1
1
1
1
1
1
1
1
1
1
1
1
1
1
1
1
1
1
1
1
1
1
1
1
1
1
1
1
1
1
1
1
1
1
1
1
1
1
1
1
1
1
1
1
1
1
1
1
1
1
1
1
1
1
1
1
1
1
1
1
1
1
1
1
1
1
1
1
1
1
1
1
1
1
1
1
1
1
1
1
1
1
1
1
1
1
1
1
1
1
1
1
1
1
1
1
1
1
1
1
1
1
1
1
1
1
1
1
1
1
1
1
1
1
1
1
1
1
1
1
1
1
1
1
1
1
1
1
1
1
1
1
1
1
1
1
1
1
1
1
1
1
1
1
1
1
1
1
1
1
1
1
1
1
1
1
1
1
1
1
1
1
1
1
1
1
1
1
1
1
1
1
1
1
1
1
1
1
1
1
1
1
1
1
1
1
1
1
1
1
1
1
1
1
1
1
1
1
1
1
1
1
1
1
1
1
1
1
1
1
1
1
1
1
1
1
1
1
1
1
1
1
1
1
1
1
1
1
1
1
1
1
1
1
1
1
1
1
1
1
1
1
1
1
1
1
1
1
1
1
1
1
1
1
1
1
1
1
1
1
1
1
1
1
1
1
1
1
1
1
1
1
1
1
1
1
1
1
1
1
1
1
1
1
1
1
1
1
1
1
1
1
1
1
1
1
1
1
1
1
1
1
1
1
1
1
1
1
1
1
1
1
1
1
1
1
1
1
1
1
1
1
1
1
1
1
1
1
1
1
1
1
1
1
1
1
1
1
1
1
1
1
1
1
1
1
1
1
1
1
1
1
1
1
1
1
1
1
1
1
1
1
1
1
1
1
1
1
1
1
1
1
1
1
1
1
1
1
1
1
1
1
1
1
1
1
1
1
1
1
1
1
1
1
1
1
1
1
1
1
1
1
1
1
1
1
1
1
1
1
1
1
1
1
1
1
1
1
1
1
1
1
1
1
1
1
1
1
1
1
1
1
1
1
1
1
1
1
1
1
1
1
1
1
1
1
1
1
1
1
1
1
1
1
1
1
1
1
1
1
1
1
1
1
1
1
1
1
1
1
1
1
1
1
1
1
1
1
1
1
1
1
1
1
1
1
1
1
1
1
1
1
1
1
1
1
1
1
1
1
1
1
1
1
1
1
1
1
1
1
1
1
1
1
1
1
1
1
1
1
1
1
1
1
1
1
1
1
1
1
1
1
1
1
1
1
1
1
1
1
1
1
1
1
1
1
1
1
1
1
1
1
1
1
1
1
1
1
1
1
1
1
1
1
1
1
1
1
1
1
1
1
1
1
1
1
1
1
1
1
1
1
1
1
1
1
1
1
1
1
1
1
1
1
1
1
1
1
1
1
1
1
1
1
1
1
1
1
1
1
1
1
1
1
1
1
1
1
1
1
1
1
1
1
1
16
16
16
16
16
16
16
16
16
16
16
16
16
16
16
16
16
16
16
16
16
16
16
16
16
16
16
16
16
16
16
16
16
16
16
16
16
16
16
16
16
16
16
16
16
16
16
16
16
16
16
16
16
16
16
16
16
16
16
16
16
16
16
16
   1.0000000000000000       0.0000000000000000    
   0.0000000000000000       0.0000000000000000    
   0.0000000000000000       0.0000000000000000    
   0.0000000000000000       0.0000000000000000    
   0.0000000000000000       0.0000000000000000    
   0.0000000000000000       0.0000000000000000    
   0.0000000000000000       0.0000000000000000    
   0.0000000000000000       0.0000000000000000    
   0.0000000000000000       0.0000000000000000    
   0.0000000000000000       0.0000000000000000    
   0.0000000000000000       0.0000000000000000    
   0.0000000000000000       0.0000000000000000    
   0.0000000000000000       0.0000000000000000    
   0.0000000000000000       0.0000000000000000    
   0.0000000000000000       0.0000000000000000    
   0.0000000000000000       0.0000000000000000    
   0.0000000000000000       0.0000000000000000    
   1.0000000000000000       0.0000000000000000    
   0.0000000000000000       0.0000000000000000    
   0.0000000000000000       0.0000000000000000    
   0.0000000000000000       0.0000000000000000    
   0.0000000000000000       0.0000000000000000    
   0.0000000000000000       0.0000000000000000    
   0.0000000000000000       0.0000000000000000    
   0.0000000000000000       0.0000000000000000    
   0.0000000000000000       0.0000000000000000    
   0.0000000000000000       0.0000000000000000    
   0.0000000000000000       0.0000000000000000    
   0.0000000000000000       0.0000000000000000    
   0.0000000000000000       0.0000000000000000    
   0.0000000000000000       0.0000000000000000    
   0.0000000000000000       0.0000000000000000    
   0.0000000000000000       0.0000000000000000    
   0.0000000000000000       0.0000000000000000    
   1.0000000000000000       0.0000000000000000    
   0.0000000000000000       0.0000000000000000    
   0.0000000000000000       0.0000000000000000    
   0.0000000000000000       0.0000000000000000    
   0.0000000000000000       0.0000000000000000    
   0.0000000000000000       0.0000000000000000    
   0.0000000000000000       0.0000000000000000    
   0.0000000000000000       0.0000000000000000    
   0.0000000000000000       0.0000000000000000    
   0.0000000000000000       0.0000000000000000    
   0.0000000000000000       0.0000000000000000    
   0.0000000000000000       0.0000000000000000    
   0.0000000000000000       0.0000000000000000    
   0.0000000000000000       0.0000000000000000    
   0.0000000000000000       0.0000000000000000    
   0.0000000000000000       0.0000000000000000    
   0.0000000000000000       0.0000000000000000    
   1.0000000000000000       0.0000000000000000    
   0.0000000000000000       0.0000000000000000    
   0.0000000000000000       0.0000000000000000    
   0.0000000000000000       0.0000000000000000    
   0.0000000000000000       0.0000000000000000    
   0.0000000000000000       0.0000000000000000    
   0.0000000000000000       0.0000000000000000    
   0.0000000000000000       0.0000000000000000    
   0.0000000000000000       0.0000000000000000    
   0.0000000000000000       0.0000000000000000    
   0.0000000000000000       0.0000000000000000    
   0.0000000000000000       0.0000000000000000    
   0.0000000000000000       0.0000000000000000    
   0.0000000000000000       0.0000000000000000    
   0.0000000000000000       0.0000000000000000    
   0.0000000000000000       0.0000000000000000    
   0.0000000000000000       0.0000000000000000    
  0.27935589031349867      0.54682991457201868    
 -0.68460741102382738      0.29125265445424325    
  0.67617754183410025E-01  0.25465614942527759    
  0.26380459433129106E-08  0.15635733402825821E-08
  0.16670110040026418E-07  0.20334404044476951E-07
  0.66337470578679762E-08  0.32267948450727359E-07
 -0.23982231767365482E-07 -0.22816371028298476E-08
 -0.19053914877524180E-07  0.23525740916574688E-07
  0.20183621001073597E-07  0.27674842292146455E-09
 -0.48346029258802826E-08 -0.10520308921896490E-07
 -0.10571775564420366E-08  0.74061183702873448E-09
  0.13081807905679812E-07 -0.15875261580508563E-07
   0.0000000000000000       0.0000000000000000    
   0.0000000000000000       0.0000000000000000    
   0.0000000000000000       0.0000000000000000    
   0.0000000000000000       0.0000000000000000    
  0.61117313381661031      0.27985476532938541    
  0.12115602754466841     -0.30087483299224932    
 -0.46223912425175712     -0.47883113379943404    
  0.37658786475092903E-08  0.42151498173816320E-08
  0.34304918775424367E-07  0.51126439729110451E-07
  0.15798534861910136E-07 -0.80929429064343155E-07
  0.12150915688070588E-07 -0.20195968681268097E-07
 -0.10276252548895451E-08  0.65121689256820430E-08
  0.52476608175601447E-08 -0.23870368349395168E-07
  0.55813894921249437E-07 -0.36929149023972922E-07
 -0.22697213526337856E-08  0.71334292292248424E-09
 -0.34390268144752215E-09 -0.19231549309078929E-07
   0.0000000000000000       0.0000000000000000    
   0.0000000000000000       0.0000000000000000    
   0.0000000000000000       0.0000000000000000    
   0.0000000000000000       0.0000000000000000    
  0.40756611154005407     -0.70540106490087254E-01
  0.22787775667859793E-02 -0.58418742119192990    
  0.66873149036576407      0.20107713939571245    
 -0.26878265462587290E-08 -0.10148000274107795E-07
  0.17584944927115221E-07 -0.25093920652724596E-07
  0.56755762263674065E-08 -0.94680342192463602E-07
  0.39579492072262146E-07  0.41141924707004006E-08
 -0.39050489471029499E-07 -0.37264693466414928E-07
  0.95836207521174193E-07 -0.11105424618679696E-07
 -0.82408150867575184E-07  0.23053659896161721E-07
  0.43581463956634878E-08  0.72902229529432122E-09
  0.22747213582297012E-07 -0.10495042721224195E-07
   0.0000000000000000       0.0000000000000000    
   0.0000000000000000       0.0000000000000000    
   0.0000000000000000       0.0000000000000000    
   0.0000000000000000       0.0000000000000000    
 -0.18200707020874400E-08  0.52851862931314451E-08
 -0.36100228584743417E-09  0.38329816901100907E-08
 -0.82699497700242000E-08 -0.38917561879922734E-08
 -0.33902884522623417     -0.92851226523893848    
  0.89295030046051063E-08 -0.14804472568550515E-07
 -0.36231784374158058E-07  0.16288730286063412E-07
  0.19604177632388386E-08 -0.19735321773815487E-08
  0.33743950907279441E-07 -0.24643069805515280E-07
 -0.62666734775036208E-07 -0.18110872796936085E-07
  0.64916092424553426E-08  0.22416115363839327E-07
 -0.15098739001024147     -0.11279337893133849E-01
  0.53011463417738643E-08 -0.10025755435700321E-13
   1.0000000000000000       0.0000000000000000    
   0.0000000000000000       0.0000000000000000    
   0.0000000000000000       0.0000000000000000    
   0.0000000000000000       0.0000000000000000    
   0.0000000000000000       0.0000000000000000    
   0.0000000000000000       0.0000000000000000    
   0.0000000000000000       0.0000000000000000    
   0.0000000000000000       0.0000000000000000    
   0.0000000000000000       0.0000000000000000    
   0.0000000000000000       0.0000000000000000    
   0.0000000000000000       0.0000000000000000    
   0.0000000000000000       0.0000000000000000    
   0.0000000000000000       0.0000000000000000    
   0.0000000000000000       0.0000000000000000    
   0.0000000000000000       0.0000000000000000    
   0.0000000000000000       0.0000000000000000    
   0.0000000000000000       0.0000000000000000    
   1.0000000000000000       0.0000000000000000    
   0.0000000000000000       0.0000000000000000    
   0.0000000000000000       0.0000000000000000    
   0.0000000000000000       0.0000000000000000    
   0.0000000000000000       0.0000000000000000    
   0.0000000000000000       0.0000000000000000    
   0.0000000000000000       0.0000000000000000    
   0.0000000000000000       0.0000000000000000    
   0.0000000000000000       0.0000000000000000    
   0.0000000000000000       0.0000000000000000    
   0.0000000000000000       0.0000000000000000    
   0.0000000000000000       0.0000000000000000    
   0.0000000000000000       0.0000000000000000    
   0.0000000000000000       0.0000000000000000    
   0.0000000000000000       0.0000000000000000    
   0.0000000000000000       0.0000000000000000    
   0.0000000000000000       0.0000000000000000    
   1.0000000000000000       0.0000000000000000    
   0.0000000000000000       0.0000000000000000    
   0.0000000000000000       0.0000000000000000    
   0.0000000000000000       0.0000000000000000    
   0.0000000000000000       0.0000000000000000    
   0.0000000000000000       0.0000000000000000    
   0.0000000000000000       0.0000000000000000    
   0.0000000000000000       0.0000000000000000    
   0.0000000000000000       0.0000000000000000    
   0.0000000000000000       0.0000000000000000    
   0.0000000000000000       0.0000000000000000    
   0.0000000000000000       0.0000000000000000    
   0.0000000000000000       0.0000000000000000    
   0.0000000000000000       0.0000000000000000    
   0.0000000000000000       0.0000000000000000    
   0.0000000000000000       0.0000000000000000    
   0.0000000000000000       0.0000000000000000    
   1.0000000000000000       0.0000000000000000    
   0.0000000000000000       0.0000000000000000    
   0.0000000000000000       0.0000000000000000    
   0.0000000000000000       0.0000000000000000    
   0.0000000000000000       0.0000000000000000    
   0.0000000000000000       0.0000000000000000    
   0.0000000000000000       0.0000000000000000    
   0.0000000000000000       0.0000000000000000    
   0.0000000000000000       0.0000000000000000    
   0.0000000000000000       0.0000000000000000    
   0.0000000000000000       0.0000000000000000    
   0.0000000000000000       0.0000000000000000    
   0.0000000000000000       0.0000000000000000    
   0.0000000000000000       0.0000000000000000    
   0.0000000000000000       0.0000000000000000    
   0.0000000000000000       0.0000000000000000    
   0.0000000000000000       0.0000000000000000    
 -0.38022200258672401     -0.90680968721761446    
 -0.11496198108924250E-06 -0.12961366515136035E-06
  0.55371990527573748E-07 -0.38665882329869470E-07
  0.11997719321868022E-01 -0.67799496819342442E-01
 -0.52277359459905668E-07  0.59299599602275368E-07
 -0.45283695199668664E-07  0.84076708407303289E-07
 -0.54392257932324918E-01 -0.86463802052477778E-01
 -0.97955250416856099E-01 -0.91416437289524061E-01
  0.14386508363321724E-07 -0.10785025433906482E-07
  0.20117386370952883E-07 -0.68257856170703109E-08
 -0.65678190573849029E-08 -0.11857270788119409E-06
  0.99911256175402427E-08  0.13382945766446015E-07
   0.0000000000000000       0.0000000000000000    
   0.0000000000000000       0.0000000000000000    
   0.0000000000000000       0.0000000000000000    
   0.0000000000000000       0.0000000000000000    
  0.36638587422941178E-07  0.99486796363520730E-07
 -0.61754287579368095     -0.38780917060661291    
  0.30280392228769598      0.55603474850572476    
 -0.42556816704168972E-07  0.17728653982777064E-06
 -0.17656344885801442      0.81503643057193098E-01
  0.29311512668405398E-01  0.31304902827508807E-01
 -0.41416221083284474E-07  0.29273446821296245E-07
  0.47393220216939852E-07  0.37370439639164611E-07
 -0.72779423150257736E-02  0.68794924247379166E-01
  0.63638788215843525E-01 -0.98645724128706744E-01
  0.13444073421488432E-01  0.55870639971016045E-01
 -0.41273847609827677E-01 -0.64427816295123327E-01
   0.0000000000000000       0.0000000000000000    
   0.0000000000000000       0.0000000000000000    
   0.0000000000000000       0.0000000000000000    
   0.0000000000000000       0.0000000000000000    
 -0.27828724435637285E-07 -0.12301376807103387E-06
  0.12079559085752721      0.62150886482878143    
 -0.22898244428678480      0.69233098056001430    
  0.84916331433065262E-07 -0.15343175854784581E-06
 -0.25922099997278528E-01 -0.34164385168272436E-01
  0.11007115164666842     -0.16031785329885104    
 -0.43579399749842839E-07  0.20607122336720726E-07
 -0.19551759672848762E-07 -0.70333880664029296E-07
  0.11843269950651797E-01 -0.11679307578119837    
  0.37249505817480578E-01 -0.58294004190833359E-01
  0.14807839230122112E-01 -0.75068105017694051E-01
 -0.79538528333924340E-02 -0.56912373611914584E-01
   0.0000000000000000       0.0000000000000000    
   0.0000000000000000       0.0000000000000000    
   0.0000000000000000       0.0000000000000000    
   0.0000000000000000       0.0000000000000000    
 -0.91717712219926972E-02 -0.21874150807348031E-01
  0.12668313044143619E-06  0.13107669274227321E-06
 -0.28000449703477777E-07  0.15888425808018176E-07
 -0.16547830202626235      0.93512684817118696    
 -0.60099129080188588E-07 -0.35404034431770864E-07
  0.65965575306049141E-09  0.39883601826131103E-07
 -0.16011532005541820     -0.25452455480526215    
 -0.61916011161667381E-01 -0.57782803439712982E-01
 -0.10104077108963152E-06 -0.14057251243709846E-06
 -0.80611253576503909E-07  0.53685874273073828E-07
  0.22716992630780643E-07 -0.40340630058535499E-06
 -0.90779067126284559E-09  0.48578630745644356E-07
   1.0000000000000000       0.0000000000000000    
   0.0000000000000000       0.0000000000000000    
   0.0000000000000000       0.0000000000000000    
   0.0000000000000000       0.0000000000000000    
   0.0000000000000000       0.0000000000000000    
   0.0000000000000000       0.0000000000000000    
   0.0000000000000000       0.0000000000000000    
   0.0000000000000000       0.0000000000000000    
   0.0000000000000000       0.0000000000000000    
   0.0000000000000000       0.0000000000000000    
   0.0000000000000000       0.0000000000000000    
   0.0000000000000000       0.0000000000000000    
   0.0000000000000000       0.0000000000000000    
   0.0000000000000000       0.0000000000000000    
   0.0000000000000000       0.0000000000000000    
   0.0000000000000000       0.0000000000000000    
   0.0000000000000000       0.0000000000000000    
   1.0000000000000000       0.0000000000000000    
   0.0000000000000000       0.0000000000000000    
   0.0000000000000000       0.0000000000000000    
   0.0000000000000000       0.0000000000000000    
   0.0000000000000000       0.0000000000000000    
   0.0000000000000000       0.0000000000000000    
   0.0000000000000000       0.0000000000000000    
   0.0000000000000000       0.0000000000000000    
   0.0000000000000000       0.0000000000000000    
   0.0000000000000000       0.0000000000000000    
   0.0000000000000000       0.0000000000000000    
   0.0000000000000000       0.0000000000000000    
   0.0000000000000000       0.0000000000000000    
   0.0000000000000000       0.0000000000000000    
   0.0000000000000000       0.0000000000000000    
   0.0000000000000000       0.0000000000000000    
   0.0000000000000000       0.0000000000000000    
   1.0000000000000000       0.0000000000000000    
   0.0000000000000000       0.0000000000000000    
   0.0000000000000000       0.0000000000000000    
   0.0000000000000000       0.0000000000000000    
   0.0000000000000000       0.0000000000000000    
   0.0000000000000000       0.0000000000000000    
   0.0000000000000000       0.0000000000000000    
   0.0000000000000000       0.0000000000000000    
   0.0000000000000000       0.0000000000000000    
   0.0000000000000000       0.0000000000000000    
   0.0000000000000000       0.0000000000000000    
   0.0000000000000000       0.0000000000000000    
   0.0000000000000000       0.0000000000000000    
   0.0000000000000000       0.0000000000000000    
   0.0000000000000000       0.0000000000000000    
   0.0000000000000000       0.0000000000000000    
   0.0000000000000000       0.0000000000000000    
   1.0000000000000000       0.0000000000000000    
   0.0000000000000000       0.0000000000000000    
   0.0000000000000000       0.0000000000000000    
   0.0000000000000000       0.0000000000000000    
   0.0000000000000000       0.0000000000000000    
   0.0000000000000000       0.0000000000000000    
   0.0000000000000000       0.0000000000000000    
   0.0000000000000000       0.0000000000000000    
   0.0000000000000000       0.0000000000000000    
   0.0000000000000000       0.0000000000000000    
   0.0000000000000000       0.0000000000000000    
   0.0000000000000000       0.0000000000000000    
   0.0000000000000000       0.0000000000000000    
   0.0000000000000000       0.0000000000000000    
   0.0000000000000000       0.0000000000000000    
   0.0000000000000000       0.0000000000000000    
   0.0000000000000000       0.0000000000000000    
   1.0000000000000000       0.0000000000000000    
   0.0000000000000000       0.0000000000000000    
   0.0000000000000000       0.0000000000000000    
   0.0000000000000000       0.0000000000000000    
   0.0000000000000000       0.0000000000000000    
   0.0000000000000000       0.0000000000000000    
   0.0000000000000000       0.0000000000000000    
   0.0000000000000000       0.0000000000000000    
   0.0000000000000000       0.0000000000000000    
   0.0000000000000000       0.0000000000000000    
   0.0000000000000000       0.0000000000000000    
   0.0000000000000000       0.0000000000000000    
   0.0000000000000000       0.0000000000000000    
   0.0000000000000000       0.0000000000000000    
   0.0000000000000000       0.0000000000000000    
   0.0000000000000000       0.0000000000000000    
   0.0000000000000000       0.0000000000000000    
  0.16376329069918545E-01  0.51011731544106020    
  0.67080436014445766     -0.35885165694758592    
  0.96362718220793150E-08  0.15980071344850176E-07
  0.87338554087501636E-07 -0.59296289949866572E-07
 -0.64453666576738747E-08  0.37212456979449650E-07
 -0.20319568047659070E-07 -0.64931408341518243E-07
 -0.13892749173114555      0.15945267268731647    
  0.86259349743390945E-01 -0.32953370214064825    
  0.35460429384504421E-07  0.61259999586071510E-07
  0.84406633596575060E-07 -0.63160290792850841E-07
  0.99781535900335136E-07 -0.66583383632273892E-07
   0.0000000000000000       0.0000000000000000    
   0.0000000000000000       0.0000000000000000    
   0.0000000000000000       0.0000000000000000    
   0.0000000000000000       0.0000000000000000    
   0.0000000000000000       0.0000000000000000    
  0.13182109409336024     -0.74925040494367368    
  0.48979597517475493     -0.14348431398454531    
 -0.26263189014044891E-07 -0.13090401633974396E-06
 -0.19462424003105387E-07 -0.60178844932922276E-07
  0.80002635141422425E-07 -0.10522221007338788E-06
  0.77252669829290738E-08 -0.43914816600438503E-07
  0.28170578358502751      0.19150723312176884    
  0.20952244638092338      0.28746474671754882E-01
  0.66679414495049283E-07  0.48059461505527261E-07
  0.63760826549027104E-07  0.31786265224026152E-08
  0.41915545815104749E-07  0.46041203532504537E-07
   0.0000000000000000       0.0000000000000000    
   0.0000000000000000       0.0000000000000000    
   0.0000000000000000       0.0000000000000000    
   0.0000000000000000       0.0000000000000000    
   0.0000000000000000       0.0000000000000000    
 -0.54786258101873799E-08 -0.45670545887799984E-07
  0.15151874632813810E-07 -0.80671601345668142E-08
  0.29933520971749034      0.76752921522830209    
 -0.90703322915824111E-07  0.11927562162888680E-06
 -0.14414791024965920E-06 -0.24866731750709398E-06
  0.16416705553465773E-07 -0.10976071207729499E-06
  0.19241658351089270E-06  0.17524277922800181E-06
  0.12302054338941713E-06 -0.50879882721681460E-07
 -0.43414078689932978     -0.36273351929036141    
  0.34660904115693184E-07 -0.71961962539933357E-07
  0.31281975341623490E-01 -0.16277135699732881E-01
   1.0000000000000000       0.0000000000000000    
   0.0000000000000000       0.0000000000000000    
   0.0000000000000000       0.0000000000000000    
   0.0000000000000000       0.0000000000000000    
   0.0000000000000000       0.0000000000000000    
   0.0000000000000000       0.0000000000000000    
   0.0000000000000000       0.0000000000000000    
   0.0000000000000000       0.0000000000000000    
   0.0000000000000000       0.0000000000000000    
   0.0000000000000000       0.0000000000000000    
   0.0000000000000000       0.0000000000000000    
   0.0000000000000000       0.0000000000000000    
   0.0000000000000000       0.0000000000000000    
   0.0000000000000000       0.0000000000000000    
   0.0000000000000000       0.0000000000000000    
   0.0000000000000000       0.0000000000000000    
   0.0000000000000000       0.0000000000000000    
   1.0000000000000000       0.0000000000000000    
   0.0000000000000000       0.0000000000000000    
   0.0000000000000000       0.0000000000000000    
   0.0000000000000000       0.0000000000000000    
   0.0000000000000000       0.0000000000000000    
   0.0000000000000000       0.0000000000000000    
   0.0000000000000000       0.0000000000000000    
   0.0000000000000000       0.0000000000000000    
   0.0000000000000000       0.0000000000000000    
   0.0000000000000000       0.0000000000000000    
   0.0000000000000000       0.0000000000000000    
   0.0000000000000000       0.0000000000000000    
   0.0000000000000000       0.0000000000000000    
   0.0000000000000000       0.0000000000000000    
   0.0000000000000000       0.0000000000000000    
   0.0000000000000000       0.0000000000000000    
   0.0000000000000000       0.0000000000000000    
   1.0000000000000000       0.0000000000000000    
   0.0000000000000000       0.0000000000000000    
   0.0000000000000000       0.0000000000000000    
   0.0000000000000000       0.0000000000000000    
   0.0000000000000000       0.0000000000000000    
   0.0000000000000000       0.0000000000000000    
   0.0000000000000000       0.0000000000000000    
   0.0000000000000000       0.0000000000000000    
   0.0000000000000000       0.0000000000000000    
   0.0000000000000000       0.0000000000000000    
   0.0000000000000000       0.0000000000000000    
   0.0000000000000000       0.0000000000000000    
   0.0000000000000000       0.0000000000000000    
   0.0000000000000000       0.0000000000000000    
   0.0000000000000000       0.0000000000000000    
   0.0000000000000000       0.0000000000000000    
   0.0000000000000000       0.0000000000000000    
   1.0000000000000000       0.0000000000000000    
   0.0000000000000000       0.0000000000000000    
   0.0000000000000000       0.0000000000000000    
   0.0000000000000000       0.0000000000000000    
   0.0000000000000000       0.0000000000000000    
   0.0000000000000000       0.0000000000000000    
   0.0000000000000000       0.0000000000000000    
   0.0000000000000000       0.0000000000000000    
   0.0000000000000000       0.0000000000000000    
   0.0000000000000000       0.0000000000000000    
   0.0000000000000000       0.0000000000000000    
   0.0000000000000000       0.0000000000000000    
   0.0000000000000000       0.0000000000000000    
   0.0000000000000000       0.0000000000000000    
   0.0000000000000000       0.0000000000000000    
   0.0000000000000000       0.0000000000000000    
   0.0000000000000000       0.0000000000000000    
 -0.22328426707134127     -0.95760990766248111    
 -0.17488757209698164E-07  0.45100225123916125E-07
 -0.61466289334903770E-07  0.83120976411054567E-09
 -0.54163182228082751E-01 -0.42509538527661539E-01
 -0.13870973187191456E-07 -0.54697024416870657E-07
  0.33686353767604303E-07 -0.44025565870826556E-07
 -0.60110177640178952E-01 -0.82590946173651578E-01
 -0.10628940198387649      0.81576680676907876E-01
  0.19866983476266314E-07  0.16390419490502619E-07
 -0.81652285655163829E-08 -0.40408428232624752E-09
 -0.65947736531444728E-08  0.51815701660683614E-07
 -0.39141941946728611E-08  0.30781569321415250E-07
   0.0000000000000000       0.0000000000000000    
   0.0000000000000000       0.0000000000000000    
   0.0000000000000000       0.0000000000000000    
   0.0000000000000000       0.0000000000000000    
  0.14294270163043190E-07  0.17419847778862658E-07
  0.67783904069878320      0.19945173468922117    
 -0.48480790784419842     -0.44534769394414137    
  0.30862811314616947E-07 -0.42310101241821318E-07
 -0.60705239786976927E-02  0.17870933366711839    
 -0.19572637718601057E-01 -0.85438194525849345E-01
  0.50897391284203087E-09 -0.24599204689416001E-07
  0.59330055224659770E-07  0.42496422087645895E-07
 -0.19165867797909665E-01  0.94972405133086343E-01
  0.75049427003772318E-01 -0.59557219987835419E-01
 -0.59240187470256903E-01  0.22173530809495530E-01
 -0.45776364085111938E-01 -0.55319128985745453E-01
   0.0000000000000000       0.0000000000000000    
   0.0000000000000000       0.0000000000000000    
   0.0000000000000000       0.0000000000000000    
   0.0000000000000000       0.0000000000000000    
  0.52760944249477845E-08  0.54593775723236008E-07
 -0.53646570820472583      0.38154659861222318    
 -0.69739215510718788      0.11353818470327967    
 -0.78565438744590522E-08  0.82700429786654136E-07
 -0.69017554654697902E-01  0.54031060956960829E-01
 -0.10785001149634574      0.14262623780334108    
  0.28073739236880989E-07  0.10010326309830901E-07
 -0.69660741559526530E-07 -0.12530215579960229E-07
  0.61096947707682033E-02 -0.95614645602902518E-01
  0.67074712821145729E-01 -0.69914865983242661E-01
  0.68385598680960016E-01 -0.21888410453285646E-01
 -0.37921806344110923E-01 -0.50626101012610086E-01
   0.0000000000000000       0.0000000000000000    
   0.0000000000000000       0.0000000000000000    
   0.0000000000000000       0.0000000000000000    
   0.0000000000000000       0.0000000000000000    
  0.53860716525773109E-02  0.23099554093827218E-01
  0.60140023801078846E-08  0.48070049707346797E-07
  0.28590029685450129E-07  0.33945761693218836E-07
 -0.74704766288748925     -0.58631486018564083    
 -0.13195273160439943E-06  0.15315730566394489E-06
 -0.10212570070875988E-06  0.80297737435074497E-07
  0.17694711238554425      0.24312415956357314    
  0.67183846487232149E-01 -0.51563244260427320E-01
 -0.62059549697553595E-07 -0.16201125200833061E-07
 -0.56322701541287420E-07 -0.68116451018444914E-08
 -0.29406825311923450E-07 -0.15810940290468037E-06
 -0.13996810567543706E-07  0.15128316906874346E-07
   1.0000000000000000       0.0000000000000000    
   0.0000000000000000       0.0000000000000000    
   0.0000000000000000       0.0000000000000000    
   0.0000000000000000       0.0000000000000000    
   0.0000000000000000       0.0000000000000000    
   0.0000000000000000       0.0000000000000000    
   0.0000000000000000       0.0000000000000000    
   0.0000000000000000       0.0000000000000000    
   0.0000000000000000       0.0000000000000000    
   0.0000000000000000       0.0000000000000000    
   0.0000000000000000       0.0000000000000000    
   0.0000000000000000       0.0000000000000000    
   0.0000000000000000       0.0000000000000000    
   0.0000000000000000       0.0000000000000000    
   0.0000000000000000       0.0000000000000000    
   0.0000000000000000       0.0000000000000000    
   0.0000000000000000       0.0000000000000000    
   1.0000000000000000       0.0000000000000000    
   0.0000000000000000       0.0000000000000000    
   0.0000000000000000       0.0000000000000000    
   0.0000000000000000       0.0000000000000000    
   0.0000000000000000       0.0000000000000000    
   0.0000000000000000       0.0000000000000000    
   0.0000000000000000       0.0000000000000000    
   0.0000000000000000       0.0000000000000000    
   0.0000000000000000       0.0000000000000000    
   0.0000000000000000       0.0000000000000000    
   0.0000000000000000       0.0000000000000000    
   0.0000000000000000       0.0000000000000000    
   0.0000000000000000       0.0000000000000000    
   0.0000000000000000       0.0000000000000000    
   0.0000000000000000       0.0000000000000000    
   0.0000000000000000       0.0000000000000000    
   0.0000000000000000       0.0000000000000000    
   1.0000000000000000       0.0000000000000000    
   0.0000000000000000       0.0000000000000000    
   0.0000000000000000       0.0000000000000000    
   0.0000000000000000       0.0000000000000000    
   0.0000000000000000       0.0000000000000000    
   0.0000000000000000       0.0000000000000000    
   0.0000000000000000       0.0000000000000000    
   0.0000000000000000       0.0000000000000000    
   0.0000000000000000       0.0000000000000000    
   0.0000000000000000       0.0000000000000000    
   0.0000000000000000       0.0000000000000000    
   0.0000000000000000       0.0000000000000000    
   0.0000000000000000       0.0000000000000000    
   0.0000000000000000       0.0000000000000000    
   0.0000000000000000       0.0000000000000000    
   0.0000000000000000       0.0000000000000000    
   0.0000000000000000       0.0000000000000000    
   1.0000000000000000       0.0000000000000000    
   0.0000000000000000       0.0000000000000000    
   0.0000000000000000       0.0000000000000000    
   0.0000000000000000       0.0000000000000000    
   0.0000000000000000       0.0000000000000000    
   0.0000000000000000       0.0000000000000000    
   0.0000000000000000       0.0000000000000000    
   0.0000000000000000       0.0000000000000000    
   0.0000000000000000       0.0000000000000000    
   0.0000000000000000       0.0000000000000000    
   0.0000000000000000       0.0000000000000000    
   0.0000000000000000       0.0000000000000000    
   0.0000000000000000       0.0000000000000000    
   0.0000000000000000       0.0000000000000000    
   0.0000000000000000       0.0000000000000000    
   0.0000000000000000       0.0000000000000000    
   0.0000000000000000       0.0000000000000000    
  0.90020586283195381      0.39560334453118384    
  0.87002061982848417E-07 -0.43362625346684992E-07
  0.13103941446333833E-06 -0.28700835175635197E-07
 -0.78774010522797595E-02 -0.68400700890267313E-01
  0.57811665624070500E-07  0.22650830622688821E-07
  0.30063067289217680E-07 -0.50059675940908304E-07
  0.10008801993596100     -0.20417797815927608E-01
 -0.97423653211882066E-01 -0.91982729800485524E-01
 -0.61164096310088222E-07 -0.46196901764789659E-07
  0.14159120230308189E-07  0.31818935619556218E-07
  0.65168202018933977E-08  0.54777487305756058E-07
 -0.60838812420323754E-07  0.18127386933412730E-07
   0.0000000000000000       0.0000000000000000    
   0.0000000000000000       0.0000000000000000    
   0.0000000000000000       0.0000000000000000    
   0.0000000000000000       0.0000000000000000    
  0.93324530343408928E-07  0.78204856138903939E-07
 -0.57256274588535261     -0.33092334040276211    
 -0.65842873063312235      0.24850208641212032    
  0.25562833325841212E-07 -0.16684437833528476E-06
 -0.49646991981273550E-01 -0.85420987833316284E-02
 -0.13696587248081937      0.13549609957951386    
  0.30275018835493517E-07  0.61363368004229475E-08
 -0.78506629805757647E-08 -0.20306619862100445E-07
  0.50954055136101760E-02 -0.97573044105878359E-02
 -0.46581806292238993E-01  0.12757567516711871    
 -0.56563702587147857E-02  0.64167528861839906E-01
 -0.54301663211958333E-01  0.45371879017758264E-01
   0.0000000000000000       0.0000000000000000    
   0.0000000000000000       0.0000000000000000    
   0.0000000000000000       0.0000000000000000    
   0.0000000000000000       0.0000000000000000    
 -0.76235051594353246E-07 -0.17714345181350419E-07
 -0.15239203670365453     -0.68706499283488787    
  0.59033164896467893      0.29807185958518223    
 -0.34630876499828717E-07  0.40782076254834916E-07
  0.19256889962422347      0.60098360115326379E-02
 -0.30551320303372324E-01  0.40055072053109556E-01
 -0.29688719759650741E-07  0.21801478085273766E-07
  0.71697993932668321E-08  0.85904197443856487E-07
  0.91906460705850734E-01 -0.99993200947918123E-01
  0.63249273972856585E-02 -0.90090551613781177E-02
 -0.64943167004663446E-01 -0.28101286598622564E-01
  0.23629306902245746E-01  0.59926082741928927E-01
   0.0000000000000000       0.0000000000000000    
   0.0000000000000000       0.0000000000000000    
   0.0000000000000000       0.0000000000000000    
   0.0000000000000000       0.0000000000000000    
 -0.21714843203218509E-01 -0.95427686525671879E-02
  0.44355554886775720E-07  0.96162825732693398E-08
  0.80622701131516020E-07 -0.66534119450682078E-07
 -0.10864979923358030     -0.94341960559336058    
  0.15391324194852703E-07  0.47278133909423946E-07
  0.58772836824362402E-07 -0.10307654324861854E-07
 -0.29463046404174248      0.60104333757872823E-01
  0.61579880524801803E-01  0.58140752456488497E-01
  0.70594951729229271E-08 -0.15560870433797797E-07
 -0.39210112037774349E-07 -0.11103890097743646E-06
 -0.23747697867144009E-07 -0.85993509259492092E-07
  0.15983679052663676E-06 -0.14574922625956072E-06
   1.0000000000000000       0.0000000000000000    
   0.0000000000000000       0.0000000000000000    
   0.0000000000000000       0.0000000000000000    
   0.0000000000000000       0.0000000000000000    
   0.0000000000000000       0.0000000000000000    
   0.0000000000000000       0.0000000000000000    
   0.0000000000000000       0.0000000000000000    
   0.0000000000000000       0.0000000000000000    
   0.0000000000000000       0.0000000000000000    
   0.0000000000000000       0.0000000000000000    
   0.0000000000000000       0.0000000000000000    
   0.0000000000000000       0.0000000000000000    
   0.0000000000000000       0.0000000000000000    
   0.0000000000000000       0.0000000000000000    
   0.0000000000000000       0.0000000000000000    
   0.0000000000000000       0.0000000000000000    
   0.0000000000000000       0.0000000000000000    
   1.0000000000000000       0.0000000000000000    
   0.0000000000000000       0.0000000000000000    
   0.0000000000000000       0.0000000000000000    
   0.0000000000000000       0.0000000000000000    
   0.0000000000000000       0.0000000000000000    
   0.0000000000000000       0.0000000000000000    
   0.0000000000000000       0.0000000000000000    
   0.0000000000000000       0.0000000000000000    
   0.0000000000000000       0.0000000000000000    
   0.0000000000000000       0.0000000000000000    
   0.0000000000000000       0.0000000000000000    
   0.0000000000000000       0.0000000000000000    
   0.0000000000000000       0.0000000000000000    
   0.0000000000000000       0.0000000000000000    
   0.0000000000000000       0.0000000000000000    
   0.0000000000000000       0.0000000000000000    
   0.0000000000000000       0.0000000000000000    
   1.0000000000000000       0.0000000000000000    
   0.0000000000000000       0.0000000000000000    
   0.0000000000000000       0.0000000000000000    
   0.0000000000000000       0.0000000000000000    
   0.0000000000000000       0.0000000000000000    
   0.0000000000000000       0.0000000000000000    
   0.0000000000000000       0.0000000000000000    
   0.0000000000000000       0.0000000000000000    
   0.0000000000000000       0.0000000000000000    
   0.0000000000000000       0.0000000000000000    
   0.0000000000000000       0.0000000000000000    
   0.0000000000000000       0.0000000000000000    
   0.0000000000000000       0.0000000000000000    
   0.0000000000000000       0.0000000000000000    
   0.0000000000000000       0.0000000000000000    
   0.0000000000000000       0.0000000000000000    
   0.0000000000000000       0.0000000000000000    
   1.0000000000000000       0.0000000000000000    
   0.0000000000000000       0.0000000000000000    
   0.0000000000000000       0.0000000000000000    
   0.0000000000000000       0.0000000000000000    
   0.0000000000000000       0.0000000000000000    
   0.0000000000000000       0.0000000000000000    
   0.0000000000000000       0.0000000000000000    
   0.0000000000000000       0.0000000000000000    
   0.0000000000000000       0.0000000000000000    
   0.0000000000000000       0.0000000000000000    
   0.0000000000000000       0.0000000000000000    
   0.0000000000000000       0.0000000000000000    
   0.0000000000000000       0.0000000000000000    
   0.0000000000000000       0.0000000000000000    
   0.0000000000000000       0.0000000000000000    
   0.0000000000000000       0.0000000000000000    
   0.0000000000000000       0.0000000000000000    
   1.0000000000000000       0.0000000000000000    
   0.0000000000000000       0.0000000000000000    
   0.0000000000000000       0.0000000000000000    
   0.0000000000000000       0.0000000000000000    
   0.0000000000000000       0.0000000000000000    
   0.0000000000000000       0.0000000000000000    
   0.0000000000000000       0.0000000000000000    
   0.0000000000000000       0.0000000000000000    
   0.0000000000000000       0.0000000000000000    
   0.0000000000000000       0.0000000000000000    
   0.0000000000000000       0.0000000000000000    
   0.0000000000000000       0.0000000000000000    
   0.0000000000000000       0.0000000000000000    
   0.0000000000000000       0.0000000000000000    
   0.0000000000000000       0.0000000000000000    
   0.0000000000000000       0.0000000000000000    
   0.0000000000000000       0.0000000000000000    
 -0.85827570381151796     -0.55405531864868428E-01
  0.39398314659463874E-07  0.75354743157280039E-07
  0.27822666653530386E-06 -0.53326846671395328E-07
 -0.34546363309561273     -0.32207040041496976    
 -0.10741231469747364E-07 -0.27361492371354432E-07
 -0.12110941922698878E-07  0.34347275019456945E-08
 -0.40072874750990062E-08  0.39005211719319247E-07
 -0.17874809846122508E-07 -0.46173674038028162E-08
 -0.15982121656990383      0.10805441871834101    
  0.30995441828880798E-07 -0.34519790267926156E-07
 -0.17164977262057413E-07  0.25465529625457625E-08
   0.0000000000000000       0.0000000000000000    
   0.0000000000000000       0.0000000000000000    
   0.0000000000000000       0.0000000000000000    
   0.0000000000000000       0.0000000000000000    
   0.0000000000000000       0.0000000000000000    
  0.38413669143728209E-07 -0.90721468425560985E-07
  0.63764955776662524     -0.61774696481340841    
  0.27936905158328784     -0.23910580534836665    
  0.96070715006400590E-07  0.19730532498333732E-07
  0.35300902658208261E-07  0.27856793762998904E-07
  0.50487302332568757E-07  0.97259176561784865E-08
 -0.26436137212074579E-01 -0.20525754665234153    
  0.15587697217186197E-01  0.22051080924773248E-01
 -0.52191828888703534E-07 -0.68222203037826489E-07
  0.13106084208900418     -0.91840327500180063E-01
  0.83462593613702396E-01 -0.20897964252911704E-01
   0.0000000000000000       0.0000000000000000    
   0.0000000000000000       0.0000000000000000    
   0.0000000000000000       0.0000000000000000    
   0.0000000000000000       0.0000000000000000    
   0.0000000000000000       0.0000000000000000    
 -0.15022483543741104E-06  0.49334310610398276E-07
  0.27721981890504432     -0.24159433390325796    
 -0.70397416098953158      0.54095158060250725    
 -0.16176774639633029E-06 -0.85463578006429703E-07
 -0.13431623214327524E-06  0.22239229134161057E-07
 -0.14661019150854846E-06  0.86932325808945292E-07
 -0.14548637228744455E-01 -0.22749982689584686E-01
 -0.18015105820851740     -0.10185835123617974    
 -0.86413717177184021E-07  0.10767816053668253E-06
 -0.83878932176619764E-01  0.19158748028443480E-01
  0.15844080002975414      0.22542091378970300E-01
   1.0000000000000000       0.0000000000000000    
   0.0000000000000000       0.0000000000000000    
   0.0000000000000000       0.0000000000000000    
   0.0000000000000000       0.0000000000000000    
   0.0000000000000000       0.0000000000000000    
   0.0000000000000000       0.0000000000000000    
   0.0000000000000000       0.0000000000000000    
   0.0000000000000000       0.0000000000000000    
   0.0000000000000000       0.0000000000000000    
   0.0000000000000000       0.0000000000000000    
   0.0000000000000000       0.0000000000000000    
   0.0000000000000000       0.0000000000000000    
   0.0000000000000000       0.0000000000000000    
   0.0000000000000000       0.0000000000000000    
   0.0000000000000000       0.0000000000000000    
   0.0000000000000000       0.0000000000000000    
   0.0000000000000000       0.0000000000000000    
   1.0000000000000000       0.0000000000000000    
   0.0000000000000000       0.0000000000000000    
   0.0000000000000000       0.0000000000000000    
   0.0000000000000000       0.0000000000000000    
   0.0000000000000000       0.0000000000000000    
   0.0000000000000000       0.0000000000000000    
   0.0000000000000000       0.0000000000000000    
   0.0000000000000000       0.0000000000000000    
   0.0000000000000000       0.0000000000000000    
   0.0000000000000000       0.0000000000000000    
   0.0000000000000000       0.0000000000000000    
   0.0000000000000000       0.0000000000000000    
   0.0000000000000000       0.0000000000000000    
   0.0000000000000000       0.0000000000000000    
   0.0000000000000000       0.0000000000000000    
   0.0000000000000000       0.0000000000000000    
   0.0000000000000000       0.0000000000000000    
   1.0000000000000000       0.0000000000000000    
   0.0000000000000000       0.0000000000000000    
   0.0000000000000000       0.0000000000000000    
   0.0000000000000000       0.0000000000000000    
   0.0000000000000000       0.0000000000000000    
   0.0000000000000000       0.0000000000000000    
   0.0000000000000000       0.0000000000000000    
   0.0000000000000000       0.0000000000000000    
   0.0000000000000000       0.0000000000000000    
   0.0000000000000000       0.0000000000000000    
   0.0000000000000000       0.0000000000000000    
   0.0000000000000000       0.0000000000000000    
   0.0000000000000000       0.0000000000000000    
   0.0000000000000000       0.0000000000000000    
   0.0000000000000000       0.0000000000000000    
   0.0000000000000000       0.0000000000000000    
   0.0000000000000000       0.0000000000000000    
   1.0000000000000000       0.0000000000000000    
   0.0000000000000000       0.0000000000000000    
   0.0000000000000000       0.0000000000000000    
   0.0000000000000000       0.0000000000000000    
   0.0000000000000000       0.0000000000000000    
   0.0000000000000000       0.0000000000000000    
   0.0000000000000000       0.0000000000000000    
   0.0000000000000000       0.0000000000000000    
   0.0000000000000000       0.0000000000000000    
   0.0000000000000000       0.0000000000000000    
   0.0000000000000000       0.0000000000000000    
   0.0000000000000000       0.0000000000000000    
   0.0000000000000000       0.0000000000000000    
   0.0000000000000000       0.0000000000000000    
   0.0000000000000000       0.0000000000000000    
   0.0000000000000000       0.0000000000000000    
   0.0000000000000000       0.0000000000000000    
   1.0000000000000000       0.0000000000000000    
   0.0000000000000000       0.0000000000000000    
   0.0000000000000000       0.0000000000000000    
   0.0000000000000000       0.0000000000000000    
   0.0000000000000000       0.0000000000000000    
   0.0000000000000000       0.0000000000000000    
   0.0000000000000000       0.0000000000000000    
   0.0000000000000000       0.0000000000000000    
   0.0000000000000000       0.0000000000000000    
   0.0000000000000000       0.0000000000000000    
   0.0000000000000000       0.0000000000000000    
   0.0000000000000000       0.0000000000000000    
   0.0000000000000000       0.0000000000000000    
   0.0000000000000000       0.0000000000000000    
   0.0000000000000000       0.0000000000000000    
   0.0000000000000000       0.0000000000000000    
   0.0000000000000000       0.0000000000000000    
 -0.13358130706900945     -0.65007392603860259    
 -0.58138370427115227      0.42909751032045113    
 -0.15212559062441709E-06 -0.12208558843180267E-06
 -0.13319332023430225      0.25029247105309613E-01
  0.14519821551452157E-07  0.11087147063796248E-07
  0.25310859119541441E-07 -0.29990414511894924E-07
  0.67208353740785640E-01 -0.10589072266017686    
  0.19146716889164844E-02  0.33329629506895136E-01
  0.11415704420226883E-01 -0.22291761143374842E-02
  0.51759892734099011E-07 -0.61770191917231340E-08
  0.45625548798382619E-01 -0.18934788323656159E-07
   0.0000000000000000       0.0000000000000000    
   0.0000000000000000       0.0000000000000000    
   0.0000000000000000       0.0000000000000000    
   0.0000000000000000       0.0000000000000000    
   0.0000000000000000       0.0000000000000000    
 -0.26851545611641478E-06 -0.11922568762593296E-06
 -0.78241474793226282E-07 -0.57400708356100209E-06
 -0.73932767853388071      0.44938130831641759    
 -0.67002197466021573E-07  0.29727602406576825E-06
  0.33685948929324649     -0.18637816480478325    
 -0.93237379021533839E-01 -0.28585338416489159    
 -0.38370743573410297E-07 -0.11546904234988478E-06
 -0.23642532518727799E-06 -0.54523209414589046E-07
  0.92699300248646871E-07  0.98153158395666357E-07
 -0.10179003329822660      0.49732390670684114E-01
  0.39241169845901131E-07  0.11236501653082440E-06
   0.0000000000000000       0.0000000000000000    
   0.0000000000000000       0.0000000000000000    
   0.0000000000000000       0.0000000000000000    
   0.0000000000000000       0.0000000000000000    
   0.0000000000000000       0.0000000000000000    
  0.89980010514561837E-01  0.43789411682586254    
 -0.43326836739936486      0.31977729158854196    
 -0.55797358279457989E-06 -0.21749389740424332E-06
  0.61567607657204815     -0.11569376793742658    
  0.56888083430950468E-07  0.47710564100110303E-06
  0.11859848236741539E-06 -0.24455530314612194E-06
 -0.91278372220847198E-01  0.14381378930902930    
  0.15917979437177997E-01  0.27711764705560088    
 -0.21637872546733102E-01  0.42253148968655367E-02
 -0.24041584228860153E-06  0.55023642075555910E-07
  0.10575205021659909      0.75169183329143231E-07
   1.0000000000000000       0.0000000000000000    
   0.0000000000000000       0.0000000000000000    
   0.0000000000000000       0.0000000000000000    
   0.0000000000000000       0.0000000000000000    
   0.0000000000000000       0.0000000000000000    
   0.0000000000000000       0.0000000000000000    
   0.0000000000000000       0.0000000000000000    
   0.0000000000000000       0.0000000000000000    
   0.0000000000000000       0.0000000000000000    
   0.0000000000000000       0.0000000000000000    
   0.0000000000000000       0.0000000000000000    
   0.0000000000000000       0.0000000000000000    
   0.0000000000000000       0.0000000000000000    
   0.0000000000000000       0.0000000000000000    
   0.0000000000000000       0.0000000000000000    
   0.0000000000000000       0.0000000000000000    
   0.0000000000000000       0.0000000000000000    
   1.0000000000000000       0.0000000000000000    
   0.0000000000000000       0.0000000000000000    
   0.0000000000000000       0.0000000000000000    
   0.0000000000000000       0.0000000000000000    
   0.0000000000000000       0.0000000000000000    
   0.0000000000000000       0.0000000000000000    
   0.0000000000000000       0.0000000000000000    
   0.0000000000000000       0.0000000000000000    
   0.0000000000000000       0.0000000000000000    
   0.0000000000000000       0.0000000000000000    
   0.0000000000000000       0.0000000000000000    
   0.0000000000000000       0.0000000000000000    
   0.0000000000000000       0.0000000000000000    
   0.0000000000000000       0.0000000000000000    
   0.0000000000000000       0.0000000000000000    
   0.0000000000000000       0.0000000000000000    
   0.0000000000000000       0.0000000000000000    
   1.0000000000000000       0.0000000000000000    
   0.0000000000000000       0.0000000000000000    
   0.0000000000000000       0.0000000000000000    
   0.0000000000000000       0.0000000000000000    
   0.0000000000000000       0.0000000000000000    
   0.0000000000000000       0.0000000000000000    
   0.0000000000000000       0.0000000000000000    
   0.0000000000000000       0.0000000000000000    
   0.0000000000000000       0.0000000000000000    
   0.0000000000000000       0.0000000000000000    
   0.0000000000000000       0.0000000000000000    
   0.0000000000000000       0.0000000000000000    
   0.0000000000000000       0.0000000000000000    
   0.0000000000000000       0.0000000000000000    
   0.0000000000000000       0.0000000000000000    
   0.0000000000000000       0.0000000000000000    
   0.0000000000000000       0.0000000000000000    
   1.0000000000000000       0.0000000000000000    
   0.0000000000000000       0.0000000000000000    
   0.0000000000000000       0.0000000000000000    
   0.0000000000000000       0.0000000000000000    
   0.0000000000000000       0.0000000000000000    
   0.0000000000000000       0.0000000000000000    
   0.0000000000000000       0.0000000000000000    
   0.0000000000000000       0.0000000000000000    
   0.0000000000000000       0.0000000000000000    
   0.0000000000000000       0.0000000000000000    
   0.0000000000000000       0.0000000000000000    
   0.0000000000000000       0.0000000000000000    
   0.0000000000000000       0.0000000000000000    
   0.0000000000000000       0.0000000000000000    
   0.0000000000000000       0.0000000000000000    
   0.0000000000000000       0.0000000000000000    
   0.0000000000000000       0.0000000000000000    
 -0.83629940834945515      0.44150572513436676    
 -0.37065745198280087E-07 -0.11446731572658345E-06
 -0.60110906817666769E-07  0.10655145763120534E-06
 -0.23902201022825134     -0.64388400980096391E-01
  0.10351591030166586E-07 -0.49607008757626189E-07
 -0.22274422690998130E-07  0.34435440966191463E-07
  0.41936928399116478E-02  0.23904893809477728E-01
 -0.95829134416525824E-01  0.14679949286222746    
 -0.37969979108291453E-07 -0.38154738287717758E-07
  0.14803845179368365E-08  0.84640930247843565E-08
 -0.51610336382945698E-07  0.67674970139453465E-07
  0.11435148271120486     -0.14141217230703380E-09
   0.0000000000000000       0.0000000000000000    
   0.0000000000000000       0.0000000000000000    
   0.0000000000000000       0.0000000000000000    
   0.0000000000000000       0.0000000000000000    
  0.54236306404401145E-07 -0.51984237202127006E-07
 -0.62921630765646197     -0.77723023498774402    
 -0.87142386503643644E-07  0.88461419952068035E-07
  0.14330466956736518E-06 -0.39491257934505032E-07
  0.10153745193892314E-07  0.41973699452609603E-07
  0.91761584710667010E-08 -0.76564703397807090E-08
  0.48480564871247928E-07 -0.19512116396709525E-07
 -0.29767907917273742E-07 -0.72768997213534541E-07
 -0.32495201392257825E-08 -0.10929885633896947E-07
  0.15364780518883630E-07  0.63044633924021120E-07
  0.24802488398699953E-07  0.23942342422920659E-07
 -0.36532815656214931E-07 -0.44438923842363490E-07
   0.0000000000000000       0.0000000000000000    
   0.0000000000000000       0.0000000000000000    
   0.0000000000000000       0.0000000000000000    
   0.0000000000000000       0.0000000000000000    
  0.14648135883887523     -0.77331578174497539E-01
 -0.15271994018209247E-07 -0.99492586877156824E-07
  0.55678674644371779E-06 -0.15691459588292457E-05
 -0.89014789000882988     -0.23979050169611804    
 -0.17924395469905354E-06  0.61836222503527745E-07
  0.46155500909439294E-06 -0.13586754939757266E-05
  0.56606181228161479E-02  0.32266785746263474E-01
  0.17204171857912892     -0.26354858957650690    
  0.13878008994918391E-06 -0.44819758052781901E-07
  0.93536479211834792E-08 -0.27541169659852846E-07
 -0.22471978344607431E-07  0.13202020479753168E-07
 -0.15023610642803006      0.29199959531780294E-08
   0.0000000000000000       0.0000000000000000    
   0.0000000000000000       0.0000000000000000    
   0.0000000000000000       0.0000000000000000    
   0.0000000000000000       0.0000000000000000    
  0.38894008949018669E-06 -0.19639318584044199E-06
  0.72077873105772837E-07  0.42725380382886701E-07
 -0.29551375113556672      0.66930271794978635    
 -0.18595645228867359E-05 -0.61588876317716203E-06
  0.24273546423814077E-07  0.20185903099055835E-06
 -0.22199969231518907      0.63700038988025431    
  0.71415646647786481E-07 -0.38896172860929300E-08
  0.46747617339076715E-06 -0.68008080658946907E-06
 -0.97539782667633038E-01  0.10701686854199071E-01
  0.11355892293841647E-02  0.47233110180653808E-02
 -0.12928672176688466E-07  0.36696913168286616E-07
 -0.41121472177669593E-06  0.40192585500125255E-07
   1.0000000000000000       0.0000000000000000    
   0.0000000000000000       0.0000000000000000    
   0.0000000000000000       0.0000000000000000    
   0.0000000000000000       0.0000000000000000    
   0.0000000000000000       0.0000000000000000    
   0.0000000000000000       0.0000000000000000    
   0.0000000000000000       0.0000000000000000    
   0.0000000000000000       0.0000000000000000    
   0.0000000000000000       0.0000000000000000    
   0.0000000000000000       0.0000000000000000    
   0.0000000000000000       0.0000000000000000    
   0.0000000000000000       0.0000000000000000    
   0.0000000000000000       0.0000000000000000    
   0.0000000000000000       0.0000000000000000    
   0.0000000000000000       0.0000000000000000    
   0.0000000000000000       0.0000000000000000    
   0.0000000000000000       0.0000000000000000    
   1.0000000000000000       0.0000000000000000    
   0.0000000000000000       0.0000000000000000    
   0.0000000000000000       0.0000000000000000    
   0.0000000000000000       0.0000000000000000    
   0.0000000000000000       0.0000000000000000    
   0.0000000000000000       0.0000000000000000    
   0.0000000000000000       0.0000000000000000    
   0.0000000000000000       0.0000000000000000    
   0.0000000000000000       0.0000000000000000    
   0.0000000000000000       0.0000000000000000    
   0.0000000000000000       0.0000000000000000    
   0.0000000000000000       0.0000000000000000    
   0.0000000000000000       0.0000000000000000    
   0.0000000000000000       0.0000000000000000    
   0.0000000000000000       0.0000000000000000    
   0.0000000000000000       0.0000000000000000    
   0.0000000000000000       0.0000000000000000    
   1.0000000000000000       0.0000000000000000    
   0.0000000000000000       0.0000000000000000    
   0.0000000000000000       0.0000000000000000    
   0.0000000000000000       0.0000000000000000    
   0.0000000000000000       0.0000000000000000    
   0.0000000000000000       0.0000000000000000    
   0.0000000000000000       0.0000000000000000    
   0.0000000000000000       0.0000000000000000    
   0.0000000000000000       0.0000000000000000    
   0.0000000000000000       0.0000000000000000    
   0.0000000000000000       0.0000000000000000    
   0.0000000000000000       0.0000000000000000    
   0.0000000000000000       0.0000000000000000    
   0.0000000000000000       0.0000000000000000    
   0.0000000000000000       0.0000000000000000    
   0.0000000000000000       0.0000000000000000    
   0.0000000000000000       0.0000000000000000    
   1.0000000000000000       0.0000000000000000    
   0.0000000000000000       0.0000000000000000    
   0.0000000000000000       0.0000000000000000    
   0.0000000000000000       0.0000000000000000    
   0.0000000000000000       0.0000000000000000    
   0.0000000000000000       0.0000000000000000    
   0.0000000000000000       0.0000000000000000    
   0.0000000000000000       0.0000000000000000    
   0.0000000000000000       0.0000000000000000    
   0.0000000000000000       0.0000000000000000    
   0.0000000000000000       0.0000000000000000    
   0.0000000000000000       0.0000000000000000    
   0.0000000000000000       0.0000000000000000    
   0.0000000000000000       0.0000000000000000    
   0.0000000000000000       0.0000000000000000    
   0.0000000000000000       0.0000000000000000    
   0.0000000000000000       0.0000000000000000    
   1.0000000000000000       0.0000000000000000    
   0.0000000000000000       0.0000000000000000    
   0.0000000000000000       0.0000000000000000    
   0.0000000000000000       0.0000000000000000    
   0.0000000000000000       0.0000000000000000    
   0.0000000000000000       0.0000000000000000    
   0.0000000000000000       0.0000000000000000    
   0.0000000000000000       0.0000000000000000    
   0.0000000000000000       0.0000000000000000    
   0.0000000000000000       0.0000000000000000    
   0.0000000000000000       0.0000000000000000    
   0.0000000000000000       0.0000000000000000    
   0.0000000000000000       0.0000000000000000    
   0.0000000000000000       0.0000000000000000    
   0.0000000000000000       0.0000000000000000    
   0.0000000000000000       0.0000000000000000    
   0.0000000000000000       0.0000000000000000    
 -0.29050571555902116     -0.29160649908271535    
 -0.81826629135160700      0.15914083432097017E-01
 -0.38922278601541026E-07 -0.27801770071314913E-07
  0.13580500449357571E-06  0.15230146607073240E-07
  0.11298389756972319E-06  0.66807949871584457E-08
  0.54270292604429300E-07  0.80660466374709130E-07
 -0.19967129593447286     -0.49356949531329256E-01
 -0.34171512440159391      0.41050410161592069E-01
  0.18288703014552351E-07 -0.21503023728089396E-07
  0.22876983645590630E-08  0.15105033692432526E-07
 -0.22729816353333732E-07  0.50030012662699827E-07
   0.0000000000000000       0.0000000000000000    
   0.0000000000000000       0.0000000000000000    
   0.0000000000000000       0.0000000000000000    
   0.0000000000000000       0.0000000000000000    
   0.0000000000000000       0.0000000000000000    
 -0.67067110564818722     -0.46905550533806611    
  0.40370110621189270     -0.80332382892352214E-01
 -0.11656969451095287E-06  0.18747141693533356E-09
  0.11382655041626026E-07 -0.29612046168107766E-07
  0.29837114012730278E-07  0.24322998929643966E-07
 -0.27622364783268943E-07 -0.76819224783801488E-07
 -0.26623149020881953     -0.21811768520262342    
  0.19494715524439915      0.65577448470796385E-01
  0.24082199706430690E-07  0.22541367833953294E-07
 -0.84837226480496638E-07  0.87707215956600515E-08
 -0.86108236251043454E-07  0.18821072761578616E-10
   0.0000000000000000       0.0000000000000000    
   0.0000000000000000       0.0000000000000000    
   0.0000000000000000       0.0000000000000000    
   0.0000000000000000       0.0000000000000000    
   0.0000000000000000       0.0000000000000000    
  0.52338558707299154E-07  0.40628964318881449E-08
 -0.93540181430714266E-08 -0.75660546313272197E-09
 -0.73658330057235899      0.36898202365195704    
  0.98453768969332684E-08 -0.56314264841236921E-08
 -0.35915446581642640E-07  0.87224599429039899E-07
 -0.13291834147465409E-06 -0.61065453031324575E-07
  0.84533892562399039E-07 -0.16151254152501776E-07
 -0.47564437983963511E-07 -0.67112195210393804E-07
 -0.56081938911834195     -0.74400394216646779E-01
 -0.42492834049667155E-07 -0.60722620211947211E-08
 -0.30536928786207181E-01  0.17635125438490058E-01
   1.0000000000000000       0.0000000000000000    
   0.0000000000000000       0.0000000000000000    
   0.0000000000000000       0.0000000000000000    
   0.0000000000000000       0.0000000000000000    
   0.0000000000000000       0.0000000000000000    
   0.0000000000000000       0.0000000000000000    
   0.0000000000000000       0.0000000000000000    
   0.0000000000000000       0.0000000000000000    
   0.0000000000000000       0.0000000000000000    
   0.0000000000000000       0.0000000000000000    
   0.0000000000000000       0.0000000000000000    
   0.0000000000000000       0.0000000000000000    
   0.0000000000000000       0.0000000000000000    
   0.0000000000000000       0.0000000000000000    
   0.0000000000000000       0.0000000000000000    
   0.0000000000000000       0.0000000000000000    
   0.0000000000000000       0.0000000000000000    
   1.0000000000000000       0.0000000000000000    
   0.0000000000000000       0.0000000000000000    
   0.0000000000000000       0.0000000000000000    
   0.0000000000000000       0.0000000000000000    
   0.0000000000000000       0.0000000000000000    
   0.0000000000000000       0.0000000000000000    
   0.0000000000000000       0.0000000000000000    
   0.0000000000000000       0.0000000000000000    
   0.0000000000000000       0.0000000000000000    
   0.0000000000000000       0.0000000000000000    
   0.0000000000000000       0.0000000000000000    
   0.0000000000000000       0.0000000000000000    
   0.0000000000000000       0.0000000000000000    
   0.0000000000000000       0.0000000000000000    
   0.0000000000000000       0.0000000000000000    
   0.0000000000000000       0.0000000000000000    
   0.0000000000000000       0.0000000000000000    
   1.0000000000000000       0.0000000000000000    
   0.0000000000000000       0.0000000000000000    
   0.0000000000000000       0.0000000000000000    
   0.0000000000000000       0.0000000000000000    
   0.0000000000000000       0.0000000000000000    
   0.0000000000000000       0.0000000000000000    
   0.0000000000000000       0.0000000000000000    
   0.0000000000000000       0.0000000000000000    
   0.0000000000000000       0.0000000000000000    
   0.0000000000000000       0.0000000000000000    
   0.0000000000000000       0.0000000000000000    
   0.0000000000000000       0.0000000000000000    
   0.0000000000000000       0.0000000000000000    
   0.0000000000000000       0.0000000000000000    
   0.0000000000000000       0.0000000000000000    
   0.0000000000000000       0.0000000000000000    
   0.0000000000000000       0.0000000000000000    
   1.0000000000000000       0.0000000000000000    
   0.0000000000000000       0.0000000000000000    
   0.0000000000000000       0.0000000000000000    
   0.0000000000000000       0.0000000000000000    
   0.0000000000000000       0.0000000000000000    
   0.0000000000000000       0.0000000000000000    
   0.0000000000000000       0.0000000000000000    
   0.0000000000000000       0.0000000000000000    
   0.0000000000000000       0.0000000000000000    
   0.0000000000000000       0.0000000000000000    
   0.0000000000000000       0.0000000000000000    
   0.0000000000000000       0.0000000000000000    
   0.0000000000000000       0.0000000000000000    
   0.0000000000000000       0.0000000000000000    
   0.0000000000000000       0.0000000000000000    
   0.0000000000000000       0.0000000000000000    
   0.0000000000000000       0.0000000000000000    
   1.0000000000000000       0.0000000000000000    
   0.0000000000000000       0.0000000000000000    
   0.0000000000000000       0.0000000000000000    
   0.0000000000000000       0.0000000000000000    
   0.0000000000000000       0.0000000000000000    
   0.0000000000000000       0.0000000000000000    
   0.0000000000000000       0.0000000000000000    
   0.0000000000000000       0.0000000000000000    
   0.0000000000000000       0.0000000000000000    
   0.0000000000000000       0.0000000000000000    
   0.0000000000000000       0.0000000000000000    
   0.0000000000000000       0.0000000000000000    
   0.0000000000000000       0.0000000000000000    
   0.0000000000000000       0.0000000000000000    
   0.0000000000000000       0.0000000000000000    
   0.0000000000000000       0.0000000000000000    
   0.0000000000000000       0.0000000000000000    
  0.35433953490449949     -0.56114490480175816    
 -0.51715476810257577      0.50466079393595120    
  0.11613397250580957E-07 -0.69587947152315798E-06
  0.77313726611751205E-01  0.11130831896679713    
 -0.16331610626797303E-06 -0.73139373622359344E-07
  0.28862707812536175E-07 -0.12284183825434171E-06
 -0.10707095488264476      0.65311901626886992E-01
 -0.45870742983045235E-02 -0.33068077752290662E-01
  0.11147722065873431E-01  0.33193414953900675E-02
 -0.99067409942970252E-07  0.24322602371067474E-06
 -0.45625671406617552E-01  0.76006968072926774E-07
   0.0000000000000000       0.0000000000000000    
   0.0000000000000000       0.0000000000000000    
   0.0000000000000000       0.0000000000000000    
   0.0000000000000000       0.0000000000000000    
   0.0000000000000000       0.0000000000000000    
  0.65067294648654386E-06  0.40307094949983390E-06
  0.53317141853618404E-06 -0.25557286738723665E-06
 -0.67407432453865990     -0.54237700978623304    
 -0.77973978559900860E-06  0.55805313276499011E-06
 -0.31252943725805082      0.22480301378706852    
 -0.18765372024022928E-01 -0.30008876350213193    
  0.13119655780134146E-07 -0.47188621223225317E-07
 -0.62664181892621947E-07  0.18225207814327547E-06
 -0.73825245291125823E-07  0.11935872134036465E-06
 -0.63810788341319188E-01 -0.93609391698522199E-01
  0.32704801150200995E-06 -0.37856716237689563E-06
   0.0000000000000000       0.0000000000000000    
   0.0000000000000000       0.0000000000000000    
   0.0000000000000000       0.0000000000000000    
   0.0000000000000000       0.0000000000000000    
   0.0000000000000000       0.0000000000000000    
  0.23868230882245911     -0.37799259966752430    
  0.38539906757260289     -0.37609396506294179    
  0.80120225245864364E-06 -0.52545320679137904E-06
  0.35737945680363703      0.51451129778683302    
  0.40229165470405887E-07 -0.30812461272755835E-06
  0.34594415567609728E-06  0.14825830189860191E-06
 -0.14541611136114727      0.88703525269147848E-01
  0.38141451647682928E-01  0.27494147325236978    
  0.21129851366347988E-01  0.62912635692181388E-02
  0.44453482288126366E-06 -0.29753273836600222E-06
  0.10575202603010944      0.30173838073422198E-06
   1.0000000000000000       0.0000000000000000    
   0.0000000000000000       0.0000000000000000    
   0.0000000000000000       0.0000000000000000    
   0.0000000000000000       0.0000000000000000    
   0.0000000000000000       0.0000000000000000    
   0.0000000000000000       0.0000000000000000    
   0.0000000000000000       0.0000000000000000    
   0.0000000000000000       0.0000000000000000    
   0.0000000000000000       0.0000000000000000    
   0.0000000000000000       0.0000000000000000    
   0.0000000000000000       0.0000000000000000    
   0.0000000000000000       0.0000000000000000    
   0.0000000000000000       0.0000000000000000    
   0.0000000000000000       0.0000000000000000    
   0.0000000000000000       0.0000000000000000    
   0.0000000000000000       0.0000000000000000    
   0.0000000000000000       0.0000000000000000    
   1.0000000000000000       0.0000000000000000    
   0.0000000000000000       0.0000000000000000    
   0.0000000000000000       0.0000000000000000    
   0.0000000000000000       0.0000000000000000    
   0.0000000000000000       0.0000000000000000    
   0.0000000000000000       0.0000000000000000    
   0.0000000000000000       0.0000000000000000    
   0.0000000000000000       0.0000000000000000    
   0.0000000000000000       0.0000000000000000    
   0.0000000000000000       0.0000000000000000    
   0.0000000000000000       0.0000000000000000    
   0.0000000000000000       0.0000000000000000    
   0.0000000000000000       0.0000000000000000    
   0.0000000000000000       0.0000000000000000    
   0.0000000000000000       0.0000000000000000    
   0.0000000000000000       0.0000000000000000    
   0.0000000000000000       0.0000000000000000    
   1.0000000000000000       0.0000000000000000    
   0.0000000000000000       0.0000000000000000    
   0.0000000000000000       0.0000000000000000    
   0.0000000000000000       0.0000000000000000    
   0.0000000000000000       0.0000000000000000    
   0.0000000000000000       0.0000000000000000    
   0.0000000000000000       0.0000000000000000    
   0.0000000000000000       0.0000000000000000    
   0.0000000000000000       0.0000000000000000    
   0.0000000000000000       0.0000000000000000    
   0.0000000000000000       0.0000000000000000    
   0.0000000000000000       0.0000000000000000    
   0.0000000000000000       0.0000000000000000    
   0.0000000000000000       0.0000000000000000    
   0.0000000000000000       0.0000000000000000    
   0.0000000000000000       0.0000000000000000    
   0.0000000000000000       0.0000000000000000    
   1.0000000000000000       0.0000000000000000    
   0.0000000000000000       0.0000000000000000    
   0.0000000000000000       0.0000000000000000    
   0.0000000000000000       0.0000000000000000    
   0.0000000000000000       0.0000000000000000    
   0.0000000000000000       0.0000000000000000    
   0.0000000000000000       0.0000000000000000    
   0.0000000000000000       0.0000000000000000    
   0.0000000000000000       0.0000000000000000    
   0.0000000000000000       0.0000000000000000    
   0.0000000000000000       0.0000000000000000    
   0.0000000000000000       0.0000000000000000    
   0.0000000000000000       0.0000000000000000    
   0.0000000000000000       0.0000000000000000    
   0.0000000000000000       0.0000000000000000    
   0.0000000000000000       0.0000000000000000    
   0.0000000000000000       0.0000000000000000    
   1.0000000000000000       0.0000000000000000    
   0.0000000000000000       0.0000000000000000    
   0.0000000000000000       0.0000000000000000    
   0.0000000000000000       0.0000000000000000    
   0.0000000000000000       0.0000000000000000    
   0.0000000000000000       0.0000000000000000    
   0.0000000000000000       0.0000000000000000    
   0.0000000000000000       0.0000000000000000    
   0.0000000000000000       0.0000000000000000    
   0.0000000000000000       0.0000000000000000    
   0.0000000000000000       0.0000000000000000    
   0.0000000000000000       0.0000000000000000    
   0.0000000000000000       0.0000000000000000    
   0.0000000000000000       0.0000000000000000    
   0.0000000000000000       0.0000000000000000    
   0.0000000000000000       0.0000000000000000    
   0.0000000000000000       0.0000000000000000    
   1.0000000000000000       0.0000000000000000    
   0.0000000000000000       0.0000000000000000    
   0.0000000000000000       0.0000000000000000    
   0.0000000000000000       0.0000000000000000    
   0.0000000000000000       0.0000000000000000    
   0.0000000000000000       0.0000000000000000    
   0.0000000000000000       0.0000000000000000    
   0.0000000000000000       0.0000000000000000    
   0.0000000000000000       0.0000000000000000    
   0.0000000000000000       0.0000000000000000    
   0.0000000000000000       0.0000000000000000    
   0.0000000000000000       0.0000000000000000    
   0.0000000000000000       0.0000000000000000    
   0.0000000000000000       0.0000000000000000    
   0.0000000000000000       0.0000000000000000    
   0.0000000000000000       0.0000000000000000    
   0.0000000000000000       0.0000000000000000    
 -0.91677205476085988     -0.10719615436397165    
 -0.31060581493434875     -0.22707270163542276    
  0.10276926580945599E-06  0.33099179986755490E-07
 -0.70763738626444273E-07 -0.31121092928089548E-07
 -0.26125406052919059E-07 -0.82190439607266879E-07
  0.34750679318738556E-07 -0.80010742759958891E-07
  0.56777359070055717E-07  0.16472390790440015E-06
  0.11301590865961757E-06  0.35331960022171023E-07
  0.10505422491323965E-07  0.10733318162802958E-07
 -0.84950340289317502E-07 -0.41594657115137039E-07
   0.0000000000000000       0.0000000000000000    
   0.0000000000000000       0.0000000000000000    
   0.0000000000000000       0.0000000000000000    
   0.0000000000000000       0.0000000000000000    
   0.0000000000000000       0.0000000000000000    
   0.0000000000000000       0.0000000000000000    
 -0.35307873202384371      0.15288359327098780    
  0.91781338431615289      0.97880577597372370E-01
 -0.10055306706147788E-06 -0.11709483372156836E-06
  0.12572655069169394E-06  0.27463033672116906E-06
  0.16070022698464944E-06 -0.12827755935747683E-07
 -0.33340206472594999E-06 -0.10298713584059181E-06
 -0.11819924612478612E-06  0.49894630958072679E-07
  0.10459319361096566E-06  0.11967098889899556E-06
  0.54312335132373887E-07 -0.11196408485809773E-06
 -0.13255576637561399E-07  0.14970673708930671E-07
   1.0000000000000000       0.0000000000000000    
   0.0000000000000000       0.0000000000000000    
   0.0000000000000000       0.0000000000000000    
   0.0000000000000000       0.0000000000000000    
   0.0000000000000000       0.0000000000000000    
   0.0000000000000000       0.0000000000000000    
   0.0000000000000000       0.0000000000000000    
   0.0000000000000000       0.0000000000000000    
   0.0000000000000000       0.0000000000000000    
   0.0000000000000000       0.0000000000000000    
[...]
 -0.11274773619351740E-01  0.17939241049163226    
  0.91574715664666484      0.17355238828471526E-01
 -0.33543449979739605E-01  0.53428099511732420E-01
  0.31859983766661118E-01 -0.41397292764652663E-01
 -0.86433371288752014E-02 -0.56538904315786001E-03
  0.35547125718611064E-02 -0.11249111972321887E-01
  0.23411028772876808E-01  0.85915215595032037E-02
 -0.41015586722582487E-01 -0.87821254009074912E-02
 -0.11274829845766679E-01  0.17939241583382398    
 -0.33543493715109764E-01  0.53428127404561848E-01
  0.91574716417205293      0.17355881997526985E-01
  0.31860027923638547E-01 -0.41397307657106149E-01
 -0.86433554377093099E-02 -0.56540391346577364E-03
  0.23411007227684397E-01  0.85915084092599639E-02
  0.35547569342556954E-02 -0.11249132960660595E-01
 -0.41015533687493520E-01 -0.87821407197969069E-02
  0.36030435263336408E-01 -0.17904972499975338    
  0.13948105993238612E-01 -0.47982001671594957E-01
  0.13948115867014742E-01 -0.47981993059074399E-01
  0.90402839255509582     -0.19212408506195870E-01
 -0.77500257346727985E-03  0.23655049623323467E-01
 -0.28360387617901623E-01 -0.27214412744141422E-01
 -0.28360331894548934E-01 -0.27214435172275241E-01
 -0.81663246784692591E-02 -0.20573758431856860E-01
  0.11995438182458836E-02  0.17007842740522774E-01
  0.37305986117606126E-01 -0.35667496815826780E-02
  0.37305991295711820E-01 -0.35667132652769198E-02
 -0.13465145235957914E-01  0.41475138619031645E-02
  0.86432945956581075      0.35640305853140147    
 -0.70423084144610987E-01  0.17231219542479570    
 -0.70423222689921627E-01  0.17231212474278598    
  0.10031555347826492     -0.15637100313683733    
  0.82018071375296129E-02  0.27853247330116454E-02
 -0.10206963117738348E-02  0.11753173359672965E-01
  0.24916800746432020E-01  0.10215064269601479E-02
 -0.41254201019307102E-01 -0.75822472190602763E-02
 -0.58233949405362813E-01  0.17005167976994559    
  0.85268171752676003      0.33440687386356555    
 -0.10544043919316756E-01 -0.62197672127057978E-01
  0.13592792215480837E-01  0.50438426261259751E-01
  0.82017826091836440E-02  0.27852882426499274E-02
  0.24916770949932995E-01  0.10215130604957984E-02
 -0.10207055691347550E-02  0.11753169840990929E-01
 -0.41254216648113289E-01 -0.75822983132838809E-02
 -0.58234020139548849E-01  0.17005162206928978    
 -0.10544019149034184E-01 -0.62197645520644211E-01
  0.85268131137984116      0.33440792644739264    
  0.13592799459117032E-01  0.50438401007817366E-01
 -0.83363463331306079E-02  0.22151023219488579E-01
 -0.36616035856751231E-01  0.14289909325953330E-01
 -0.36616073988063845E-01  0.14289850689944344E-01
 -0.15417930118977800E-01  0.15882611962528749E-01
  0.35231419745462893E-01 -0.17920867050618969    
 -0.54754955239018103E-02  0.49667291500315902E-01
 -0.54755607889875393E-02  0.49667244331027927E-01
  0.82786171762691318      0.36370516976203970    
  0.93492584997195627      0.14908712457014240E-02
 -0.32839218467828848E-01 -0.18285702540459670    
 -0.87861578385133856E-03  0.18614541972418330    
 -0.87867567555647847E-03  0.18614543280288265    
  0.76168123873264068E-02 -0.15254175938378736E-01
  0.10853032619995203E-01  0.89847062135001137E-02
 -0.33101286579701725E-01 -0.17571662843190592E-01
 -0.33101387184678616E-01 -0.17571474691472320E-01
  0.36030304728159511E-01 -0.17904978628685392    
  0.90402835609171173     -0.19213713304860266E-01
  0.13948009119544188E-01 -0.47982038641637116E-01
  0.13948076991090647E-01 -0.47981973657456670E-01
 -0.77493216428231723E-03  0.23655034977546088E-01
 -0.81663340270262501E-02 -0.20573792887412259E-01
 -0.28360420676251646E-01 -0.27214405114061528E-01
 -0.28360500160650681E-01 -0.27214184120329870E-01
 -0.11274816101388802E-01  0.17939240516335342    
  0.31859997195826280E-01 -0.41397357470053603E-01
  0.91574718744686467      0.17355836762216983E-01
 -0.33543479848234581E-01  0.53428067171297444E-01
 -0.86433675466889414E-02 -0.56542027541029534E-03
 -0.41015435945569431E-01 -0.87822815991547721E-02
  0.35547080378717233E-02 -0.11249125811431525E-01
  0.23410900817529792E-01  0.85914567732461380E-02
 -0.11274864922605328E-01  0.17939237579884104    
  0.31860056162051259E-01 -0.41397314526213473E-01
 -0.33543534811262564E-01  0.53428050779113070E-01
  0.91574715084682135      0.17356611024617601E-01
 -0.86433870556640868E-02 -0.56535494169412731E-03
 -0.41015415000963465E-01 -0.87823370580217761E-02
  0.23411118742072547E-01  0.85915588936114895E-02
  0.35547489144562303E-02 -0.11249157034401070E-01
  0.11995253353660545E-02  0.17007846537746740E-01
 -0.13465201604798303E-01  0.41475056390195449E-02
  0.37305947055849893E-01 -0.35666989883567923E-02
  0.37305974356165186E-01 -0.35666778881011654E-02
  0.86432949122220915      0.35640298241570972    
  0.10031574622193928     -0.15637089226720882    
 -0.70423203533394998E-01  0.17231214223637861    
 -0.70422829364727199E-01  0.17231231116104390    
 -0.83364205769696827E-02  0.22150952134042050E-01
 -0.15417930419065608E-01  0.15882617430007000E-01
 -0.36616141724033699E-01  0.14289701473406819E-01
 -0.36616111516475397E-01  0.14289636793818552E-01
  0.35231709635269282E-01 -0.17920862335699278    
  0.82786065128228292      0.36370761236596932    
 -0.54756377837485931E-02  0.49667263038667357E-01
 -0.54754671472897727E-02  0.49667235496397365E-01
  0.82017851848675671E-02  0.27852473327520037E-02
 -0.41254225131463311E-01 -0.75822640252993954E-02
 -0.10207500658307898E-02  0.11753188658252457E-01
  0.24916720637782781E-01  0.10214826519441768E-02
 -0.58234017112914330E-01  0.17005164666293604    
  0.13592704031389425E-01  0.50438408594719555E-01
  0.85268130493412386      0.33440789743407351    
 -0.10544132664668549E-01 -0.62197608001074281E-01
  0.82018521005856448E-02  0.27854360835300740E-02
 -0.41254204368582820E-01 -0.75819928520475801E-02
  0.24916867766177402E-01  0.10214633193530757E-02
 -0.10207075469708896E-02  0.11753169721216336E-01
 -0.58233736845027882E-01  0.17005176300956962    
  0.13592800071276704E-01  0.50438337369958515E-01
 -0.10544182826540500E-01 -0.62197575457246655E-01
  0.85268265630171036      0.33440452403045479    
  0.92323825884726263      0.36481484676139026E-03
  0.14517008383391115E-01 -0.18862702001395462    
  0.14517074715353710E-01 -0.18862700455019391    
  0.14517162116435091E-01 -0.18862701121186462    
  0.10231200788989078E-01 -0.28238713290103013E-01
  0.15870480529858812E-01  0.59548655253584539E-02
  0.15870489456697275E-01  0.59548730777343982E-02
  0.15870466457775099E-01  0.59548979371161770E-02
 -0.22931939908110186E-01 -0.19875936064049299    
  0.91587566934022746      0.28963065008857900E-01
 -0.34251488241383431E-01  0.10823485574875400E-01
 -0.34251468254753635E-01  0.10823496384307806E-01
  0.42422781912664305E-01  0.57870230995458053E-02
 -0.76802668602198032E-03 -0.34960045745510136E-02
 -0.30716935991501673E-01 -0.91779146740931534E-02
 -0.30717009625473742E-01 -0.91778211074082256E-02
 -0.22931876017894395E-01 -0.19875934547503757    
 -0.34251475917935648E-01  0.10823503302006807E-01
  0.91587564731154125      0.28963727614839833E-01
 -0.34251501288517228E-01  0.10823493337610695E-01
  0.42422755150983336E-01  0.57870132864147458E-02
 -0.30716967015121749E-01 -0.91779117554748844E-02
 -0.76804610779651877E-03 -0.34959908550993065E-02
 -0.30717008078736910E-01 -0.91778375076678551E-02
 -0.22931800939463842E-01 -0.19875936950063830    
 -0.34251482170528785E-01  0.10823490675402220E-01
 -0.34251479557739238E-01  0.10823505542929003E-01
  0.91587562773037434      0.28964451013051316E-01
  0.42422747052669844E-01  0.57870604682958692E-02
 -0.30716963170052004E-01 -0.91779312883624765E-02
 -0.30716924360120707E-01 -0.91779875022426644E-02
 -0.76802849629211225E-03 -0.34959669461946687E-02
  0.30004477355175099E-01  0.13540420689772438E-02
 -0.57179157037927396E-03  0.16941233109704381E-01
 -0.57179376735386396E-03  0.16941208778096708E-01
 -0.57177886906503706E-03  0.16941236134392464E-01
  0.35297075974965419     -0.85310061062012632    
 -0.17982408247508927     -0.58772409944240357E-01
 -0.17982406171345741     -0.58772516226104111E-01
 -0.17982415788987877     -0.58772156454606442E-01
 -0.10887981347528773E-01  0.41408140952396012E-01
  0.29359459950316050E-02  0.20474106110483395E-02
 -0.32756080472029583E-02  0.31891005236494276E-01
 -0.32756117565451992E-02  0.31891002004195784E-01
 -0.17485404513221872     -0.97248235703719266E-01
  0.32373176931199849     -0.85724257321100283    
 -0.23107072896137216E-01  0.27502263864086361E-01
 -0.23107012175232144E-01  0.27502330026730335E-01
 -0.10888015548703979E-01  0.41408151433023732E-01
 -0.32755968952568981E-02  0.31891022249451298E-01
  0.29359400317984434E-02  0.20474313685038600E-02
 -0.32756683851822409E-02  0.31891014641881696E-01
 -0.17485399283848857     -0.97248355428341759E-01
 -0.23107082698231866E-01  0.27502271470898086E-01
  0.32373283857055857     -0.85724217373086253    
 -0.23107112649937304E-01  0.27502268581295237E-01
 -0.10887875959524786E-01  0.41408130416868826E-01
 -0.32754871737210086E-02  0.31890988768219226E-01
 -0.32755283951673439E-02  0.31890988257196995E-01
  0.29359393288362436E-02  0.20474074374742112E-02
 -0.17485419157107604     -0.97247956616454106E-01
 -0.23107000287293088E-01  0.27502272333293640E-01
 -0.23107108367339826E-01  0.27502260707350391E-01
  0.32372918585389643     -0.85724355172668676    
  0.92593619479987654     -0.12997859883233551E-01
  0.16578973553734527E-01 -0.17537149502137131    
 -0.47748438665515770E-02  0.20620016289732906    
  0.16579107341563867E-01 -0.17537147796252386    
  0.12058169963411584E-01 -0.24173457770127544E-01
  0.34562472966842304E-01 -0.12100425448536853E-01
 -0.48264107890808400E-01 -0.18688610007675039E-01
  0.34562440842837230E-01 -0.12100421281625376E-01
 -0.17304367569188552E-02 -0.18947501375145079    
  0.91804132545302453      0.82050889287963082E-02
  0.19351471974373747E-01  0.17790923206071355E-01
 -0.43137400792288901E-01 -0.16562091585762769E-01
  0.23447582281026159E-01  0.21393359635707019E-01
 -0.18479825664343729E-02  0.12594446730524012E-01
  0.17240238210858485E-01 -0.31169438487147757E-01
 -0.22842948518617064E-01  0.16518945755545553E-01
 -0.12821979433534702E-01  0.17635924597814120    
  0.68955398969026568E-01  0.77199828625500136E-01
  0.88284782664528216      0.23663380486244428E-01
  0.68955366948919947E-01  0.77199897127000802E-01
  0.12433622822607132E-01 -0.29138237488960730E-01
  0.28570564252265961E-01 -0.22136874614751521E-01
 -0.29299640929379887E-01  0.10070736812341815E-02
  0.28570508230700419E-01 -0.22136914695502215E-01
 -0.17302958661703253E-02 -0.18947500421976934    
 -0.43137360771311459E-01 -0.16562100535773124E-01
  0.19351471054891538E-01  0.17790983899185514E-01
  0.91804130410132812      0.82064231831052506E-02
  0.23447488433660259E-01  0.21393367608133110E-01
 -0.22842893981464805E-01  0.16518694418607469E-01
  0.17240301618327229E-01 -0.31169475410326768E-01
 -0.18479418132336378E-02  0.12594472722926426E-01
  0.20391092884532939E-01  0.17718863054318520E-01
 -0.36562209282944333E-01  0.20471651755176257E-02
  0.37438481019379452E-01 -0.35735831414053607E-01
 -0.36562180921046530E-01  0.20471494110897177E-02
  0.86042749582201283     -0.34233217733854954    
 -0.82428786110482960E-01 -0.15567759074078860    
  0.83320589848945525E-01  0.18867692097421840    
 -0.82429000856782828E-01 -0.15567747982808677    
 -0.13475833797936945E-01  0.28737861006430152E-01
 -0.65269660821323256E-02 -0.10928594493126205E-01
  0.27855932691324692E-01  0.22199296530783071E-01
 -0.27425588443111971E-01 -0.65198190805356975E-02
 -0.70910267930666224E-01 -0.17571426931658571    
  0.84501954553258329     -0.35889992222015366    
  0.11070142408899560E-01 -0.23842171770936990E-01
 -0.33515682892308107E-01  0.31809346877628826E-01
 -0.22637917602732403E-01 -0.22162115775919724E-01
  0.34867155373211826E-01  0.95183600720389634E-02
 -0.27454695768324985E-01  0.10282024935566724E-01
  0.34867133151095180E-01  0.95183655194187259E-02
  0.79335644555399820E-01  0.15802796214304807    
  0.34163450738314838E-01 -0.97711435331591351E-01
  0.80659005176875676     -0.35971201626292715    
  0.34163337829694454E-01 -0.97711483711976646E-01
 -0.13475722330950160E-01  0.28737899311527194E-01
 -0.27425439192494024E-01 -0.65196040465839945E-02
  0.27855995378118777E-01  0.22199243569558522E-01
 -0.65270296362613693E-02 -0.10928597758987335E-01
 -0.70910531339446595E-01 -0.17571415537227247    
 -0.33515688724666870E-01  0.31809367468843858E-01
  0.11070099741614022E-01 -0.23842181425640679E-01
  0.84501848620334929     -0.35890237897819688    
  0.92593619080104206     -0.12997836552174943E-01
  0.16578955596452134E-01 -0.17537148430064731    
  0.16579020639324586E-01 -0.17537148949525333    
 -0.47749288844038291E-02  0.20620014727028282    
  0.12058140914437819E-01 -0.24173473040802744E-01
  0.34562504818986171E-01 -0.12100405241918596E-01
  0.34562519472066108E-01 -0.12100386586973854E-01
 -0.48264239728976852E-01 -0.18688334946973990E-01
 -0.17304303904242047E-02 -0.18947500955831353    
  0.91804129694253256      0.82050122590673902E-02
 -0.43137411585926710E-01 -0.16562087416622032E-01
  0.19351498916620562E-01  0.17790978559972408E-01
  0.23447533325557560E-01  0.21393339212682268E-01
 -0.18479366833525645E-02  0.12594458499537109E-01
 -0.22842872063922926E-01  0.16518716540001720E-01
  0.17240152368451400E-01 -0.31169461317312144E-01
 -0.17303714255152681E-02 -0.18947501244011217    
 -0.43137381876483943E-01 -0.16562098341481129E-01
  0.91804130206797174      0.82056183891518839E-02
  0.19351458517962460E-01  0.17790999563582266E-01
  0.23447527580813424E-01  0.21393365938055294E-01
 -0.22842901611985086E-01  0.16518724183857150E-01
 -0.18479886777031543E-02  0.12594465576814083E-01
  0.17240158242236715E-01 -0.31169452557335314E-01
 -0.12822057276335223E-01  0.17635922254225131    
  0.68955389167885406E-01  0.77199894380831441E-01
  0.68955371886329830E-01  0.77199901571294804E-01
  0.88284778488090254      0.23664057277126661E-01
  0.12433633479588703E-01 -0.29138191475954343E-01
  0.28570592493903649E-01 -0.22136871062798002E-01
  0.28570619752025406E-01 -0.22136885868628903E-01
 -0.29299654462884055E-01  0.10071021999909272E-02
  0.20391100615204133E-01  0.17718888680527966E-01
 -0.36562210870840932E-01  0.20471862854533501E-02
 -0.36562196111398861E-01  0.20471980500763364E-02
  0.37438520205672787E-01 -0.35735770975959424E-01
  0.86042745384463226     -0.34233225171597048    
 -0.82428812325070239E-01 -0.15567759273040285    
 -0.82428696799641113E-01 -0.15567763349918101    
  0.83321073530255432E-01  0.18867673448812755    
 -0.13475829871177691E-01  0.28737884416770131E-01
 -0.65270178402381850E-02 -0.10928590464641078E-01
 -0.27425583863714985E-01 -0.65197561312422825E-02
  0.27855908838101875E-01  0.22199300503623801E-01
 -0.70910273577282842E-01 -0.17571428944381973    
  0.84501950863678565     -0.35889995414507908    
 -0.33515731741949974E-01  0.31809276894229535E-01
  0.11070099817235899E-01 -0.23842215741089690E-01
 -0.13475857286106332E-01  0.28737867213695364E-01
 -0.27425613199747133E-01 -0.65197754035684818E-02
 -0.65269785784734611E-02 -0.10928585876914353E-01
  0.27855875681047484E-01  0.22199292946979223E-01
 -0.70910163891915581E-01 -0.17571430403007521    
 -0.33515777837181543E-01  0.31809290075822408E-01
  0.84501996094957887     -0.35889888226083422    
  0.11070090799864407E-01 -0.23842185259412868E-01
 -0.22637829967610632E-01 -0.22161963787567421E-01
  0.34867252803250939E-01  0.95183035120968637E-02
  0.34867256045928045E-01  0.95182675772805120E-02
 -0.27454725510032016E-01  0.10282098304873482E-01
  0.79335924669776597E-01  0.15802782941064603    
  0.34163260461212805E-01 -0.97711536284182388E-01
  0.34163343808581700E-01 -0.97711488579582700E-01
  0.80658854132065250     -0.35971532720864691    
  0.92593619921352155     -0.12997821654736770E-01
 -0.47747591504126484E-02  0.20620015376182804    
  0.16579038652673250E-01 -0.17537146092657199    
  0.16579107885556912E-01 -0.17537144798487220    
  0.12058161281572636E-01 -0.24173444846866905E-01
 -0.48264161130693331E-01 -0.18688501687567683E-01
  0.34562503145750843E-01 -0.12100393029853076E-01
  0.34562457456795384E-01 -0.12100437783427861E-01
 -0.12821915826412676E-01  0.17635924734403868    
  0.88284782058542910      0.23662664884496202E-01
  0.68955427365327449E-01  0.77199908575722578E-01
  0.68955392258421927E-01  0.77199916842833005E-01
  0.12433621040443564E-01 -0.29138235816348078E-01
 -0.29299638419135365E-01  0.10071311617312357E-02
  0.28570547643321027E-01 -0.22136868505710932E-01
  0.28570429739804237E-01 -0.22136932960887989E-01
 -0.17303827654625060E-02 -0.18947498515488131    
  0.19351468516346646E-01  0.17791052220774307E-01
  0.91804131705433190      0.82056489434999946E-02
 -0.43137372155766393E-01 -0.16562074419744235E-01
  0.23447538914196254E-01  0.21393336171479000E-01
  0.17240216312075202E-01 -0.31169468856092258E-01
 -0.18479632733394433E-02  0.12594432466471607E-01
 -0.22842935836537400E-01  0.16518902627315299E-01
 -0.17302994301380212E-02 -0.18947499165730669    
  0.19351474968009274E-01  0.17790976209945082E-01
 -0.43137356580892655E-01 -0.16562065582683159E-01
  0.91804129959645675      0.82063855471606901E-02
  0.23447499218547000E-01  0.21393376673332097E-01
  0.17240256787868478E-01 -0.31169460106038355E-01
 -0.22842848889420279E-01  0.16518641492165538E-01
 -0.18479472700374598E-02  0.12594483861180214E-01
  0.20391100814773612E-01  0.17718871557360068E-01
  0.37438437603454430E-01 -0.35735858366994104E-01
 -0.36562179879510166E-01  0.20471570172553590E-02
 -0.36562173777142722E-01  0.20471622262394963E-02
  0.86042748872514052     -0.34233218592576481    
  0.83320742306675785E-01  0.18867685816720509    
 -0.82428701766421780E-01 -0.15567766479592932    
 -0.82429010254549129E-01 -0.15567748822560554    
 -0.22637894963315322E-01 -0.22162059998951447E-01
 -0.27454747780507216E-01  0.10282035356658501E-01
  0.34867202058440759E-01  0.95183331309731355E-02
  0.34867158887784626E-01  0.95183764452643777E-02
  0.79335718335049821E-01  0.15802795632082334    
  0.80658957647372354     -0.35971299186708028    
  0.34163440213610834E-01 -0.97711454267395040E-01
  0.34163238571121961E-01 -0.97711486516818172E-01
 -0.13475856840629762E-01  0.28737889939732145E-01
  0.27855917583906230E-01  0.22199302817643370E-01
 -0.65269890853357701E-02 -0.10928590888402954E-01
 -0.27425628873196942E-01 -0.65198345054522308E-02
 -0.70910155358808402E-01 -0.17571433299328876    
  0.11070168645435726E-01 -0.23842185356617005E-01
  0.84501997524219685     -0.35889887901270062    
 -0.33515735720505251E-01  0.31809250892880808E-01
 -0.13475724674022464E-01  0.28737898126721086E-01
  0.27856034341897550E-01  0.22199243624165598E-01
 -0.27425462952021740E-01 -0.65196114404610884E-02
 -0.65269536163228481E-02 -0.10928579787374090E-01
 -0.70910553406097462E-01 -0.17571416084200045    
  0.11070138307002082E-01 -0.23842202816493366E-01
 -0.33515714143515847E-01  0.31809250759952432E-01
  0.84501843213775540     -0.35890251514674243    
  0.12532779028115448E-07  0.74634593358845203E-07  0.93972637584026700E-07
  0.16203015450362568E-06  0.14057953570331683E-07 -0.17719333208826224E-06
 -0.90041846886532162E-08 -0.15095369598414066E-06 -0.35952684136232593E-07
 -0.25848621418647633E-07 -0.11514878580764359E-06 -0.82092075083008142E-07
   1.3576324566897644       1.3576322972734118       1.3576324642235933    
   1.3576325044245485       1.3576324651370455       1.3576325603874699    
   1.3576325787248038       1.3576325439695140       1.3576325495999915    
   1.3576326970810966       1.3576328264000685       1.3576323949811482    
   1.5273382605931614    
   2.1061579484333892    
   2.1061578712029281    
   2.1061579120567080    
   1.5273382346652351    
   2.1061579350441715    
   2.1061579615337749    
   2.1061580244169953    
