File written on  5Aug2023 at 10:26:26 

calc_only_A  :  F

begin real_lattice
   1.4349963   1.4349963   1.4349963
  -1.4349963   1.4349963   1.4349963
  -1.4349963  -1.4349963   1.4349963
end real_lattice

begin recip_lattice
   2.1892688   0.0000000   2.1892688
  -2.1892688   2.1892688   0.0000000
   0.0000000  -2.1892688   2.1892688
end recip_lattice

begin kpoints
   125
    0.00000000    0.00000000    0.00000000
    0.00000000    0.00000000    0.20000000
    0.00000000    0.00000000    0.40000000
    0.00000000    0.00000000    0.60000000
    0.00000000    0.00000000    0.80000000
    0.00000000    0.20000000    0.00000000
    0.00000000    0.20000000    0.20000000
    0.00000000    0.20000000    0.40000000
    0.00000000    0.20000000    0.60000000
    0.00000000    0.20000000    0.80000000
    0.00000000    0.40000000    0.00000000
    0.00000000    0.40000000    0.20000000
    0.00000000    0.40000000    0.40000000
    0.00000000    0.40000000    0.60000000
    0.00000000    0.40000000    0.80000000
    0.00000000    0.60000000    0.00000000
    0.00000000    0.60000000    0.20000000
    0.00000000    0.60000000    0.40000000
    0.00000000    0.60000000    0.60000000
    0.00000000    0.60000000    0.80000000
    0.00000000    0.80000000    0.00000000
    0.00000000    0.80000000    0.20000000
    0.00000000    0.80000000    0.40000000
    0.00000000    0.80000000    0.60000000
    0.00000000    0.80000000    0.80000000
    0.20000000    0.00000000    0.00000000
    0.20000000    0.00000000    0.20000000
    0.20000000    0.00000000    0.40000000
    0.20000000    0.00000000    0.60000000
    0.20000000    0.00000000    0.80000000
    0.20000000    0.20000000    0.00000000
    0.20000000    0.20000000    0.20000000
    0.20000000    0.20000000    0.40000000
    0.20000000    0.20000000    0.60000000
    0.20000000    0.20000000    0.80000000
    0.20000000    0.40000000    0.00000000
    0.20000000    0.40000000    0.20000000
    0.20000000    0.40000000    0.40000000
    0.20000000    0.40000000    0.60000000
    0.20000000    0.40000000    0.80000000
    0.20000000    0.60000000    0.00000000
    0.20000000    0.60000000    0.20000000
    0.20000000    0.60000000    0.40000000
    0.20000000    0.60000000    0.60000000
    0.20000000    0.60000000    0.80000000
    0.20000000    0.80000000    0.00000000
    0.20000000    0.80000000    0.20000000
    0.20000000    0.80000000    0.40000000
    0.20000000    0.80000000    0.60000000
    0.20000000    0.80000000    0.80000000
    0.40000000    0.00000000    0.00000000
    0.40000000    0.00000000    0.20000000
    0.40000000    0.00000000    0.40000000
    0.40000000    0.00000000    0.60000000
    0.40000000    0.00000000    0.80000000
    0.40000000    0.20000000    0.00000000
    0.40000000    0.20000000    0.20000000
    0.40000000    0.20000000    0.40000000
    0.40000000    0.20000000    0.60000000
    0.40000000    0.20000000    0.80000000
    0.40000000    0.40000000    0.00000000
    0.40000000    0.40000000    0.20000000
    0.40000000    0.40000000    0.40000000
    0.40000000    0.40000000    0.60000000
    0.40000000    0.40000000    0.80000000
    0.40000000    0.60000000    0.00000000
    0.40000000    0.60000000    0.20000000
    0.40000000    0.60000000    0.40000000
    0.40000000    0.60000000    0.60000000
    0.40000000    0.60000000    0.80000000
    0.40000000    0.80000000    0.00000000
    0.40000000    0.80000000    0.20000000
    0.40000000    0.80000000    0.40000000
    0.40000000    0.80000000    0.60000000
    0.40000000    0.80000000    0.80000000
    0.60000000    0.00000000    0.00000000
    0.60000000    0.00000000    0.20000000
    0.60000000    0.00000000    0.40000000
    0.60000000    0.00000000    0.60000000
    0.60000000    0.00000000    0.80000000
    0.60000000    0.20000000    0.00000000
    0.60000000    0.20000000    0.20000000
    0.60000000    0.20000000    0.40000000
    0.60000000    0.20000000    0.60000000
    0.60000000    0.20000000    0.80000000
    0.60000000    0.40000000    0.00000000
    0.60000000    0.40000000    0.20000000
    0.60000000    0.40000000    0.40000000
    0.60000000    0.40000000    0.60000000
    0.60000000    0.40000000    0.80000000
    0.60000000    0.60000000    0.00000000
    0.60000000    0.60000000    0.20000000
    0.60000000    0.60000000    0.40000000
    0.60000000    0.60000000    0.60000000
    0.60000000    0.60000000    0.80000000
    0.60000000    0.80000000    0.00000000
    0.60000000    0.80000000    0.20000000
    0.60000000    0.80000000    0.40000000
    0.60000000    0.80000000    0.60000000
    0.60000000    0.80000000    0.80000000
    0.80000000    0.00000000    0.00000000
    0.80000000    0.00000000    0.20000000
    0.80000000    0.00000000    0.40000000
    0.80000000    0.00000000    0.60000000
    0.80000000    0.00000000    0.80000000
    0.80000000    0.20000000    0.00000000
    0.80000000    0.20000000    0.20000000
    0.80000000    0.20000000    0.40000000
    0.80000000    0.20000000    0.60000000
    0.80000000    0.20000000    0.80000000
    0.80000000    0.40000000    0.00000000
    0.80000000    0.40000000    0.20000000
    0.80000000    0.40000000    0.40000000
    0.80000000    0.40000000    0.60000000
    0.80000000    0.40000000    0.80000000
    0.80000000    0.60000000    0.00000000
    0.80000000    0.60000000    0.20000000
    0.80000000    0.60000000    0.40000000
    0.80000000    0.60000000    0.60000000
    0.80000000    0.60000000    0.80000000
    0.80000000    0.80000000    0.00000000
    0.80000000    0.80000000    0.20000000
    0.80000000    0.80000000    0.40000000
    0.80000000    0.80000000    0.60000000
    0.80000000    0.80000000    0.80000000
end kpoints

begin spinor_projections
    16
   0.00000    0.00000    0.00000     1  1  1
    0.0000000  0.0000000  1.0000000   1.0000000  0.0000000  0.0000000    1.00
    1   0.0000000  0.0000000  1.0000000
   0.00000    0.00000    0.00000     1  1  1
    0.0000000  0.0000000  1.0000000   1.0000000  0.0000000  0.0000000    1.00
   -1   0.0000000  0.0000000  1.0000000
   0.00000    0.00000    0.00000     1  2  1
    0.0000000  0.0000000  1.0000000   1.0000000  0.0000000  0.0000000    1.00
    1   0.0000000  0.0000000  1.0000000
   0.00000    0.00000    0.00000     1  2  1
    0.0000000  0.0000000  1.0000000   1.0000000  0.0000000  0.0000000    1.00
   -1   0.0000000  0.0000000  1.0000000
   0.00000    0.00000    0.00000     1  3  1
    0.0000000  0.0000000  1.0000000   1.0000000  0.0000000  0.0000000    1.00
    1   0.0000000  0.0000000  1.0000000
   0.00000    0.00000    0.00000     1  3  1
    0.0000000  0.0000000  1.0000000   1.0000000  0.0000000  0.0000000    1.00
   -1   0.0000000  0.0000000  1.0000000
   0.00000    0.00000    0.00000     2  1  1
    0.0000000  0.0000000  1.0000000   1.0000000  0.0000000  0.0000000    1.00
    1   0.0000000  0.0000000  1.0000000
   0.00000    0.00000    0.00000     2  1  1
    0.0000000  0.0000000  1.0000000   1.0000000  0.0000000  0.0000000    1.00
   -1   0.0000000  0.0000000  1.0000000
   0.00000    0.00000    0.00000     2  2  1
    0.0000000  0.0000000  1.0000000   1.0000000  0.0000000  0.0000000    1.00
    1   0.0000000  0.0000000  1.0000000
   0.00000    0.00000    0.00000     2  2  1
    0.0000000  0.0000000  1.0000000   1.0000000  0.0000000  0.0000000    1.00
   -1   0.0000000  0.0000000  1.0000000
   0.00000    0.00000    0.00000     2  3  1
    0.0000000  0.0000000  1.0000000   1.0000000  0.0000000  0.0000000    1.00
    1   0.0000000  0.0000000  1.0000000
   0.00000    0.00000    0.00000     2  3  1
    0.0000000  0.0000000  1.0000000   1.0000000  0.0000000  0.0000000    1.00
   -1   0.0000000  0.0000000  1.0000000
   0.00000    0.00000    0.00000     2  4  1
    0.0000000  0.0000000  1.0000000   1.0000000  0.0000000  0.0000000    1.00
    1   0.0000000  0.0000000  1.0000000
   0.00000    0.00000    0.00000     2  4  1
    0.0000000  0.0000000  1.0000000   1.0000000  0.0000000  0.0000000    1.00
   -1   0.0000000  0.0000000  1.0000000
   0.00000    0.00000    0.00000     2  5  1
    0.0000000  0.0000000  1.0000000   1.0000000  0.0000000  0.0000000    1.00
    1   0.0000000  0.0000000  1.0000000
   0.00000    0.00000    0.00000     2  5  1
    0.0000000  0.0000000  1.0000000   1.0000000  0.0000000  0.0000000    1.00
   -1   0.0000000  0.0000000  1.0000000
end spinor_projections

begin nnkpts
  12
     1     2      0   0   0
     1     6      0   0   0
     1     7      0   0   0
     1    26      0   0   0
     1    31      0   0   0
     1     5      0   0  -1
     1    30      0   0  -1
     1    21      0  -1   0
     1    25      0  -1  -1
     1   101     -1   0   0
     1   102     -1   0   0
     1   121     -1  -1   0
     2     1      0   0   0
     2     3      0   0   0
     2     7      0   0   0
     2     8      0   0   0
     2    26      0   0   0
     2    27      0   0   0
     2    32      0   0   0
     2    21      0  -1   0
     2    22      0  -1   0
     2   102     -1   0   0
     2   103     -1   0   0
     2   122     -1  -1   0
     3     2      0   0   0
     3     4      0   0   0
     3     8      0   0   0
     3     9      0   0   0
     3    27      0   0   0
     3    28      0   0   0
     3    33      0   0   0
     3    22      0  -1   0
     3    23      0  -1   0
     3   103     -1   0   0
     3   104     -1   0   0
     3   123     -1  -1   0
     4     3      0   0   0
     4     5      0   0   0
     4     9      0   0   0
     4    10      0   0   0
     4    28      0   0   0
     4    29      0   0   0
     4    34      0   0   0
     4    23      0  -1   0
     4    24      0  -1   0
     4   104     -1   0   0
     4   105     -1   0   0
     4   124     -1  -1   0
     5     4      0   0   0
     5    10      0   0   0
     5    29      0   0   0
     5    30      0   0   0
     5    35      0   0   0
     5     1      0   0   1
     5     6      0   0   1
     5    24      0  -1   0
     5    25      0  -1   0
     5   101     -1   0   1
     5   105     -1   0   0
     5   125     -1  -1   0
     6     1      0   0   0
     6     7      0   0   0
     6    11      0   0   0
     6    12      0   0   0
     6    31      0   0   0
     6    36      0   0   0
     6     5      0   0  -1
     6    10      0   0  -1
     6    35      0   0  -1
     6   101     -1   0   0
     6   106     -1   0   0
     6   107     -1   0   0
     7     1      0   0   0
     7     2      0   0   0
     7     6      0   0   0
     7     8      0   0   0
     7    12      0   0   0
     7    13      0   0   0
     7    31      0   0   0
     7    32      0   0   0
     7    37      0   0   0
     7   102     -1   0   0
     7   107     -1   0   0
     7   108     -1   0   0
     8     2      0   0   0
     8     3      0   0   0
     8     7      0   0   0
     8     9      0   0   0
     8    13      0   0   0
     8    14      0   0   0
     8    32      0   0   0
     8    33      0   0   0
     8    38      0   0   0
     8   103     -1   0   0
     8   108     -1   0   0
     8   109     -1   0   0
     9     3      0   0   0
     9     4      0   0   0
     9     8      0   0   0
     9    10      0   0   0
     9    14      0   0   0
     9    15      0   0   0
     9    33      0   0   0
     9    34      0   0   0
     9    39      0   0   0
     9   104     -1   0   0
     9   109     -1   0   0
     9   110     -1   0   0
    10     4      0   0   0
    10     5      0   0   0
    10     9      0   0   0
    10    15      0   0   0
    10    34      0   0   0
    10    35      0   0   0
    10    40      0   0   0
    10     6      0   0   1
    10    11      0   0   1
    10   106     -1   0   1
    10   105     -1   0   0
    10   110     -1   0   0
    11     6      0   0   0
    11    12      0   0   0
    11    16      0   0   0
    11    17      0   0   0
    11    36      0   0   0
    11    41      0   0   0
    11    10      0   0  -1
    11    15      0   0  -1
    11    40      0   0  -1
    11   106     -1   0   0
    11   111     -1   0   0
    11   112     -1   0   0
    12     6      0   0   0
    12     7      0   0   0
    12    11      0   0   0
    12    13      0   0   0
    12    17      0   0   0
    12    18      0   0   0
    12    36      0   0   0
    12    37      0   0   0
    12    42      0   0   0
    12   107     -1   0   0
    12   112     -1   0   0
    12   113     -1   0   0
    13     7      0   0   0
    13     8      0   0   0
    13    12      0   0   0
    13    14      0   0   0
    13    18      0   0   0
    13    19      0   0   0
    13    37      0   0   0
    13    38      0   0   0
    13    43      0   0   0
    13   108     -1   0   0
    13   113     -1   0   0
    13   114     -1   0   0
    14     8      0   0   0
    14     9      0   0   0
    14    13      0   0   0
    14    15      0   0   0
    14    19      0   0   0
    14    20      0   0   0
    14    38      0   0   0
    14    39      0   0   0
    14    44      0   0   0
    14   109     -1   0   0
    14   114     -1   0   0
    14   115     -1   0   0
    15     9      0   0   0
    15    10      0   0   0
    15    14      0   0   0
    15    20      0   0   0
    15    39      0   0   0
    15    40      0   0   0
    15    45      0   0   0
    15    11      0   0   1
    15    16      0   0   1
    15   111     -1   0   1
    15   110     -1   0   0
    15   115     -1   0   0
    16    11      0   0   0
    16    17      0   0   0
    16    21      0   0   0
    16    22      0   0   0
    16    41      0   0   0
    16    46      0   0   0
    16    15      0   0  -1
    16    20      0   0  -1
    16    45      0   0  -1
    16   111     -1   0   0
    16   116     -1   0   0
    16   117     -1   0   0
    17    11      0   0   0
    17    12      0   0   0
    17    16      0   0   0
    17    18      0   0   0
    17    22      0   0   0
    17    23      0   0   0
    17    41      0   0   0
    17    42      0   0   0
    17    47      0   0   0
    17   112     -1   0   0
    17   117     -1   0   0
    17   118     -1   0   0
    18    12      0   0   0
    18    13      0   0   0
    18    17      0   0   0
    18    19      0   0   0
    18    23      0   0   0
    18    24      0   0   0
    18    42      0   0   0
    18    43      0   0   0
    18    48      0   0   0
    18   113     -1   0   0
    18   118     -1   0   0
    18   119     -1   0   0
    19    13      0   0   0
    19    14      0   0   0
    19    18      0   0   0
    19    20      0   0   0
    19    24      0   0   0
    19    25      0   0   0
    19    43      0   0   0
    19    44      0   0   0
    19    49      0   0   0
    19   114     -1   0   0
    19   119     -1   0   0
    19   120     -1   0   0
    20    14      0   0   0
    20    15      0   0   0
    20    19      0   0   0
    20    25      0   0   0
    20    44      0   0   0
    20    45      0   0   0
    20    50      0   0   0
    20    16      0   0   1
    20    21      0   0   1
    20   116     -1   0   1
    20   115     -1   0   0
    20   120     -1   0   0
    21    16      0   0   0
    21    22      0   0   0
    21    46      0   0   0
    21     1      0   1   0
    21     2      0   1   0
    21    26      0   1   0
    21    20      0   0  -1
    21    25      0   0  -1
    21    50      0   0  -1
    21   116     -1   0   0
    21   121     -1   0   0
    21   122     -1   0   0
    22    16      0   0   0
    22    17      0   0   0
    22    21      0   0   0
    22    23      0   0   0
    22    46      0   0   0
    22    47      0   0   0
    22     2      0   1   0
    22     3      0   1   0
    22    27      0   1   0
    22   117     -1   0   0
    22   122     -1   0   0
    22   123     -1   0   0
    23    17      0   0   0
    23    18      0   0   0
    23    22      0   0   0
    23    24      0   0   0
    23    47      0   0   0
    23    48      0   0   0
    23     3      0   1   0
    23     4      0   1   0
    23    28      0   1   0
    23   118     -1   0   0
    23   123     -1   0   0
    23   124     -1   0   0
    24    18      0   0   0
    24    19      0   0   0
    24    23      0   0   0
    24    25      0   0   0
    24    48      0   0   0
    24    49      0   0   0
    24     4      0   1   0
    24     5      0   1   0
    24    29      0   1   0
    24   119     -1   0   0
    24   124     -1   0   0
    24   125     -1   0   0
    25    19      0   0   0
    25    20      0   0   0
    25    24      0   0   0
    25    49      0   0   0
    25    50      0   0   0
    25     1      0   1   1
    25     5      0   1   0
    25    30      0   1   0
    25    21      0   0   1
    25   121     -1   0   1
    25   120     -1   0   0
    25   125     -1   0   0
    26     1      0   0   0
    26     2      0   0   0
    26    27      0   0   0
    26    31      0   0   0
    26    32      0   0   0
    26    51      0   0   0
    26    56      0   0   0
    26    30      0   0  -1
    26    55      0   0  -1
    26    21      0  -1   0
    26    46      0  -1   0
    26    50      0  -1  -1
    27     2      0   0   0
    27     3      0   0   0
    27    26      0   0   0
    27    28      0   0   0
    27    32      0   0   0
    27    33      0   0   0
    27    51      0   0   0
    27    52      0   0   0
    27    57      0   0   0
    27    22      0  -1   0
    27    46      0  -1   0
    27    47      0  -1   0
    28     3      0   0   0
    28     4      0   0   0
    28    27      0   0   0
    28    29      0   0   0
    28    33      0   0   0
    28    34      0   0   0
    28    52      0   0   0
    28    53      0   0   0
    28    58      0   0   0
    28    23      0  -1   0
    28    47      0  -1   0
    28    48      0  -1   0
    29     4      0   0   0
    29     5      0   0   0
    29    28      0   0   0
    29    30      0   0   0
    29    34      0   0   0
    29    35      0   0   0
    29    53      0   0   0
    29    54      0   0   0
    29    59      0   0   0
    29    24      0  -1   0
    29    48      0  -1   0
    29    49      0  -1   0
    30     5      0   0   0
    30    29      0   0   0
    30    35      0   0   0
    30    54      0   0   0
    30    55      0   0   0
    30    60      0   0   0
    30     1      0   0   1
    30    26      0   0   1
    30    31      0   0   1
    30    25      0  -1   0
    30    49      0  -1   0
    30    50      0  -1   0
    31     1      0   0   0
    31     6      0   0   0
    31     7      0   0   0
    31    26      0   0   0
    31    32      0   0   0
    31    36      0   0   0
    31    37      0   0   0
    31    56      0   0   0
    31    61      0   0   0
    31    30      0   0  -1
    31    35      0   0  -1
    31    60      0   0  -1
    32     2      0   0   0
    32     7      0   0   0
    32     8      0   0   0
    32    26      0   0   0
    32    27      0   0   0
    32    31      0   0   0
    32    33      0   0   0
    32    37      0   0   0
    32    38      0   0   0
    32    56      0   0   0
    32    57      0   0   0
    32    62      0   0   0
    33     3      0   0   0
    33     8      0   0   0
    33     9      0   0   0
    33    27      0   0   0
    33    28      0   0   0
    33    32      0   0   0
    33    34      0   0   0
    33    38      0   0   0
    33    39      0   0   0
    33    57      0   0   0
    33    58      0   0   0
    33    63      0   0   0
    34     4      0   0   0
    34     9      0   0   0
    34    10      0   0   0
    34    28      0   0   0
    34    29      0   0   0
    34    33      0   0   0
    34    35      0   0   0
    34    39      0   0   0
    34    40      0   0   0
    34    58      0   0   0
    34    59      0   0   0
    34    64      0   0   0
    35     5      0   0   0
    35    10      0   0   0
    35    29      0   0   0
    35    30      0   0   0
    35    34      0   0   0
    35    40      0   0   0
    35    59      0   0   0
    35    60      0   0   0
    35    65      0   0   0
    35     6      0   0   1
    35    31      0   0   1
    35    36      0   0   1
    36     6      0   0   0
    36    11      0   0   0
    36    12      0   0   0
    36    31      0   0   0
    36    37      0   0   0
    36    41      0   0   0
    36    42      0   0   0
    36    61      0   0   0
    36    66      0   0   0
    36    35      0   0  -1
    36    40      0   0  -1
    36    65      0   0  -1
    37     7      0   0   0
    37    12      0   0   0
    37    13      0   0   0
    37    31      0   0   0
    37    32      0   0   0
    37    36      0   0   0
    37    38      0   0   0
    37    42      0   0   0
    37    43      0   0   0
    37    61      0   0   0
    37    62      0   0   0
    37    67      0   0   0
    38     8      0   0   0
    38    13      0   0   0
    38    14      0   0   0
    38    32      0   0   0
    38    33      0   0   0
    38    37      0   0   0
    38    39      0   0   0
    38    43      0   0   0
    38    44      0   0   0
    38    62      0   0   0
    38    63      0   0   0
    38    68      0   0   0
    39     9      0   0   0
    39    14      0   0   0
    39    15      0   0   0
    39    33      0   0   0
    39    34      0   0   0
    39    38      0   0   0
    39    40      0   0   0
    39    44      0   0   0
    39    45      0   0   0
    39    63      0   0   0
    39    64      0   0   0
    39    69      0   0   0
    40    10      0   0   0
    40    15      0   0   0
    40    34      0   0   0
    40    35      0   0   0
    40    39      0   0   0
    40    45      0   0   0
    40    64      0   0   0
    40    65      0   0   0
    40    70      0   0   0
    40    11      0   0   1
    40    36      0   0   1
    40    41      0   0   1
    41    11      0   0   0
    41    16      0   0   0
    41    17      0   0   0
    41    36      0   0   0
    41    42      0   0   0
    41    46      0   0   0
    41    47      0   0   0
    41    66      0   0   0
    41    71      0   0   0
    41    40      0   0  -1
    41    45      0   0  -1
    41    70      0   0  -1
    42    12      0   0   0
    42    17      0   0   0
    42    18      0   0   0
    42    36      0   0   0
    42    37      0   0   0
    42    41      0   0   0
    42    43      0   0   0
    42    47      0   0   0
    42    48      0   0   0
    42    66      0   0   0
    42    67      0   0   0
    42    72      0   0   0
    43    13      0   0   0
    43    18      0   0   0
    43    19      0   0   0
    43    37      0   0   0
    43    38      0   0   0
    43    42      0   0   0
    43    44      0   0   0
    43    48      0   0   0
    43    49      0   0   0
    43    67      0   0   0
    43    68      0   0   0
    43    73      0   0   0
    44    14      0   0   0
    44    19      0   0   0
    44    20      0   0   0
    44    38      0   0   0
    44    39      0   0   0
    44    43      0   0   0
    44    45      0   0   0
    44    49      0   0   0
    44    50      0   0   0
    44    68      0   0   0
    44    69      0   0   0
    44    74      0   0   0
    45    15      0   0   0
    45    20      0   0   0
    45    39      0   0   0
    45    40      0   0   0
    45    44      0   0   0
    45    50      0   0   0
    45    69      0   0   0
    45    70      0   0   0
    45    75      0   0   0
    45    16      0   0   1
    45    41      0   0   1
    45    46      0   0   1
    46    16      0   0   0
    46    21      0   0   0
    46    22      0   0   0
    46    41      0   0   0
    46    47      0   0   0
    46    71      0   0   0
    46    26      0   1   0
    46    27      0   1   0
    46    51      0   1   0
    46    45      0   0  -1
    46    50      0   0  -1
    46    75      0   0  -1
    47    17      0   0   0
    47    22      0   0   0
    47    23      0   0   0
    47    41      0   0   0
    47    42      0   0   0
    47    46      0   0   0
    47    48      0   0   0
    47    71      0   0   0
    47    72      0   0   0
    47    27      0   1   0
    47    28      0   1   0
    47    52      0   1   0
    48    18      0   0   0
    48    23      0   0   0
    48    24      0   0   0
    48    42      0   0   0
    48    43      0   0   0
    48    47      0   0   0
    48    49      0   0   0
    48    72      0   0   0
    48    73      0   0   0
    48    28      0   1   0
    48    29      0   1   0
    48    53      0   1   0
    49    19      0   0   0
    49    24      0   0   0
    49    25      0   0   0
    49    43      0   0   0
    49    44      0   0   0
    49    48      0   0   0
    49    50      0   0   0
    49    73      0   0   0
    49    74      0   0   0
    49    29      0   1   0
    49    30      0   1   0
    49    54      0   1   0
    50    20      0   0   0
    50    25      0   0   0
    50    44      0   0   0
    50    45      0   0   0
    50    49      0   0   0
    50    74      0   0   0
    50    75      0   0   0
    50    26      0   1   1
    50    30      0   1   0
    50    55      0   1   0
    50    21      0   0   1
    50    46      0   0   1
    51    26      0   0   0
    51    27      0   0   0
    51    52      0   0   0
    51    56      0   0   0
    51    57      0   0   0
    51    76      0   0   0
    51    81      0   0   0
    51    55      0   0  -1
    51    80      0   0  -1
    51    46      0  -1   0
    51    71      0  -1   0
    51    75      0  -1  -1
    52    27      0   0   0
    52    28      0   0   0
    52    51      0   0   0
    52    53      0   0   0
    52    57      0   0   0
    52    58      0   0   0
    52    76      0   0   0
    52    77      0   0   0
    52    82      0   0   0
    52    47      0  -1   0
    52    71      0  -1   0
    52    72      0  -1   0
    53    28      0   0   0
    53    29      0   0   0
    53    52      0   0   0
    53    54      0   0   0
    53    58      0   0   0
    53    59      0   0   0
    53    77      0   0   0
    53    78      0   0   0
    53    83      0   0   0
    53    48      0  -1   0
    53    72      0  -1   0
    53    73      0  -1   0
    54    29      0   0   0
    54    30      0   0   0
    54    53      0   0   0
    54    55      0   0   0
    54    59      0   0   0
    54    60      0   0   0
    54    78      0   0   0
    54    79      0   0   0
    54    84      0   0   0
    54    49      0  -1   0
    54    73      0  -1   0
    54    74      0  -1   0
    55    30      0   0   0
    55    54      0   0   0
    55    60      0   0   0
    55    79      0   0   0
    55    80      0   0   0
    55    85      0   0   0
    55    26      0   0   1
    55    51      0   0   1
    55    56      0   0   1
    55    50      0  -1   0
    55    74      0  -1   0
    55    75      0  -1   0
    56    26      0   0   0
    56    31      0   0   0
    56    32      0   0   0
    56    51      0   0   0
    56    57      0   0   0
    56    61      0   0   0
    56    62      0   0   0
    56    81      0   0   0
    56    86      0   0   0
    56    55      0   0  -1
    56    60      0   0  -1
    56    85      0   0  -1
    57    27      0   0   0
    57    32      0   0   0
    57    33      0   0   0
    57    51      0   0   0
    57    52      0   0   0
    57    56      0   0   0
    57    58      0   0   0
    57    62      0   0   0
    57    63      0   0   0
    57    81      0   0   0
    57    82      0   0   0
    57    87      0   0   0
    58    28      0   0   0
    58    33      0   0   0
    58    34      0   0   0
    58    52      0   0   0
    58    53      0   0   0
    58    57      0   0   0
    58    59      0   0   0
    58    63      0   0   0
    58    64      0   0   0
    58    82      0   0   0
    58    83      0   0   0
    58    88      0   0   0
    59    29      0   0   0
    59    34      0   0   0
    59    35      0   0   0
    59    53      0   0   0
    59    54      0   0   0
    59    58      0   0   0
    59    60      0   0   0
    59    64      0   0   0
    59    65      0   0   0
    59    83      0   0   0
    59    84      0   0   0
    59    89      0   0   0
    60    30      0   0   0
    60    35      0   0   0
    60    54      0   0   0
    60    55      0   0   0
    60    59      0   0   0
    60    65      0   0   0
    60    84      0   0   0
    60    85      0   0   0
    60    90      0   0   0
    60    31      0   0   1
    60    56      0   0   1
    60    61      0   0   1
    61    31      0   0   0
    61    36      0   0   0
    61    37      0   0   0
    61    56      0   0   0
    61    62      0   0   0
    61    66      0   0   0
    61    67      0   0   0
    61    86      0   0   0
    61    91      0   0   0
    61    60      0   0  -1
    61    65      0   0  -1
    61    90      0   0  -1
    62    32      0   0   0
    62    37      0   0   0
    62    38      0   0   0
    62    56      0   0   0
    62    57      0   0   0
    62    61      0   0   0
    62    63      0   0   0
    62    67      0   0   0
    62    68      0   0   0
    62    86      0   0   0
    62    87      0   0   0
    62    92      0   0   0
    63    33      0   0   0
    63    38      0   0   0
    63    39      0   0   0
    63    57      0   0   0
    63    58      0   0   0
    63    62      0   0   0
    63    64      0   0   0
    63    68      0   0   0
    63    69      0   0   0
    63    87      0   0   0
    63    88      0   0   0
    63    93      0   0   0
    64    34      0   0   0
    64    39      0   0   0
    64    40      0   0   0
    64    58      0   0   0
    64    59      0   0   0
    64    63      0   0   0
    64    65      0   0   0
    64    69      0   0   0
    64    70      0   0   0
    64    88      0   0   0
    64    89      0   0   0
    64    94      0   0   0
    65    35      0   0   0
    65    40      0   0   0
    65    59      0   0   0
    65    60      0   0   0
    65    64      0   0   0
    65    70      0   0   0
    65    89      0   0   0
    65    90      0   0   0
    65    95      0   0   0
    65    36      0   0   1
    65    61      0   0   1
    65    66      0   0   1
    66    36      0   0   0
    66    41      0   0   0
    66    42      0   0   0
    66    61      0   0   0
    66    67      0   0   0
    66    71      0   0   0
    66    72      0   0   0
    66    91      0   0   0
    66    96      0   0   0
    66    65      0   0  -1
    66    70      0   0  -1
    66    95      0   0  -1
    67    37      0   0   0
    67    42      0   0   0
    67    43      0   0   0
    67    61      0   0   0
    67    62      0   0   0
    67    66      0   0   0
    67    68      0   0   0
    67    72      0   0   0
    67    73      0   0   0
    67    91      0   0   0
    67    92      0   0   0
    67    97      0   0   0
    68    38      0   0   0
    68    43      0   0   0
    68    44      0   0   0
    68    62      0   0   0
    68    63      0   0   0
    68    67      0   0   0
    68    69      0   0   0
    68    73      0   0   0
    68    74      0   0   0
    68    92      0   0   0
    68    93      0   0   0
    68    98      0   0   0
    69    39      0   0   0
    69    44      0   0   0
    69    45      0   0   0
    69    63      0   0   0
    69    64      0   0   0
    69    68      0   0   0
    69    70      0   0   0
    69    74      0   0   0
    69    75      0   0   0
    69    93      0   0   0
    69    94      0   0   0
    69    99      0   0   0
    70    40      0   0   0
    70    45      0   0   0
    70    64      0   0   0
    70    65      0   0   0
    70    69      0   0   0
    70    75      0   0   0
    70    94      0   0   0
    70    95      0   0   0
    70   100      0   0   0
    70    41      0   0   1
    70    66      0   0   1
    70    71      0   0   1
    71    41      0   0   0
    71    46      0   0   0
    71    47      0   0   0
    71    66      0   0   0
    71    72      0   0   0
    71    96      0   0   0
    71    51      0   1   0
    71    52      0   1   0
    71    76      0   1   0
    71    70      0   0  -1
    71    75      0   0  -1
    71   100      0   0  -1
    72    42      0   0   0
    72    47      0   0   0
    72    48      0   0   0
    72    66      0   0   0
    72    67      0   0   0
    72    71      0   0   0
    72    73      0   0   0
    72    96      0   0   0
    72    97      0   0   0
    72    52      0   1   0
    72    53      0   1   0
    72    77      0   1   0
    73    43      0   0   0
    73    48      0   0   0
    73    49      0   0   0
    73    67      0   0   0
    73    68      0   0   0
    73    72      0   0   0
    73    74      0   0   0
    73    97      0   0   0
    73    98      0   0   0
    73    53      0   1   0
    73    54      0   1   0
    73    78      0   1   0
    74    44      0   0   0
    74    49      0   0   0
    74    50      0   0   0
    74    68      0   0   0
    74    69      0   0   0
    74    73      0   0   0
    74    75      0   0   0
    74    98      0   0   0
    74    99      0   0   0
    74    54      0   1   0
    74    55      0   1   0
    74    79      0   1   0
    75    45      0   0   0
    75    50      0   0   0
    75    69      0   0   0
    75    70      0   0   0
    75    74      0   0   0
    75    99      0   0   0
    75   100      0   0   0
    75    51      0   1   1
    75    55      0   1   0
    75    80      0   1   0
    75    46      0   0   1
    75    71      0   0   1
    76    51      0   0   0
    76    52      0   0   0
    76    77      0   0   0
    76    81      0   0   0
    76    82      0   0   0
    76   101      0   0   0
    76   106      0   0   0
    76    80      0   0  -1
    76   105      0   0  -1
    76    71      0  -1   0
    76    96      0  -1   0
    76   100      0  -1  -1
    77    52      0   0   0
    77    53      0   0   0
    77    76      0   0   0
    77    78      0   0   0
    77    82      0   0   0
    77    83      0   0   0
    77   101      0   0   0
    77   102      0   0   0
    77   107      0   0   0
    77    72      0  -1   0
    77    96      0  -1   0
    77    97      0  -1   0
    78    53      0   0   0
    78    54      0   0   0
    78    77      0   0   0
    78    79      0   0   0
    78    83      0   0   0
    78    84      0   0   0
    78   102      0   0   0
    78   103      0   0   0
    78   108      0   0   0
    78    73      0  -1   0
    78    97      0  -1   0
    78    98      0  -1   0
    79    54      0   0   0
    79    55      0   0   0
    79    78      0   0   0
    79    80      0   0   0
    79    84      0   0   0
    79    85      0   0   0
    79   103      0   0   0
    79   104      0   0   0
    79   109      0   0   0
    79    74      0  -1   0
    79    98      0  -1   0
    79    99      0  -1   0
    80    55      0   0   0
    80    79      0   0   0
    80    85      0   0   0
    80   104      0   0   0
    80   105      0   0   0
    80   110      0   0   0
    80    51      0   0   1
    80    76      0   0   1
    80    81      0   0   1
    80    75      0  -1   0
    80    99      0  -1   0
    80   100      0  -1   0
    81    51      0   0   0
    81    56      0   0   0
    81    57      0   0   0
    81    76      0   0   0
    81    82      0   0   0
    81    86      0   0   0
    81    87      0   0   0
    81   106      0   0   0
    81   111      0   0   0
    81    80      0   0  -1
    81    85      0   0  -1
    81   110      0   0  -1
    82    52      0   0   0
    82    57      0   0   0
    82    58      0   0   0
    82    76      0   0   0
    82    77      0   0   0
    82    81      0   0   0
    82    83      0   0   0
    82    87      0   0   0
    82    88      0   0   0
    82   106      0   0   0
    82   107      0   0   0
    82   112      0   0   0
    83    53      0   0   0
    83    58      0   0   0
    83    59      0   0   0
    83    77      0   0   0
    83    78      0   0   0
    83    82      0   0   0
    83    84      0   0   0
    83    88      0   0   0
    83    89      0   0   0
    83   107      0   0   0
    83   108      0   0   0
    83   113      0   0   0
    84    54      0   0   0
    84    59      0   0   0
    84    60      0   0   0
    84    78      0   0   0
    84    79      0   0   0
    84    83      0   0   0
    84    85      0   0   0
    84    89      0   0   0
    84    90      0   0   0
    84   108      0   0   0
    84   109      0   0   0
    84   114      0   0   0
    85    55      0   0   0
    85    60      0   0   0
    85    79      0   0   0
    85    80      0   0   0
    85    84      0   0   0
    85    90      0   0   0
    85   109      0   0   0
    85   110      0   0   0
    85   115      0   0   0
    85    56      0   0   1
    85    81      0   0   1
    85    86      0   0   1
    86    56      0   0   0
    86    61      0   0   0
    86    62      0   0   0
    86    81      0   0   0
    86    87      0   0   0
    86    91      0   0   0
    86    92      0   0   0
    86   111      0   0   0
    86   116      0   0   0
    86    85      0   0  -1
    86    90      0   0  -1
    86   115      0   0  -1
    87    57      0   0   0
    87    62      0   0   0
    87    63      0   0   0
    87    81      0   0   0
    87    82      0   0   0
    87    86      0   0   0
    87    88      0   0   0
    87    92      0   0   0
    87    93      0   0   0
    87   111      0   0   0
    87   112      0   0   0
    87   117      0   0   0
    88    58      0   0   0
    88    63      0   0   0
    88    64      0   0   0
    88    82      0   0   0
    88    83      0   0   0
    88    87      0   0   0
    88    89      0   0   0
    88    93      0   0   0
    88    94      0   0   0
    88   112      0   0   0
    88   113      0   0   0
    88   118      0   0   0
    89    59      0   0   0
    89    64      0   0   0
    89    65      0   0   0
    89    83      0   0   0
    89    84      0   0   0
    89    88      0   0   0
    89    90      0   0   0
    89    94      0   0   0
    89    95      0   0   0
    89   113      0   0   0
    89   114      0   0   0
    89   119      0   0   0
    90    60      0   0   0
    90    65      0   0   0
    90    84      0   0   0
    90    85      0   0   0
    90    89      0   0   0
    90    95      0   0   0
    90   114      0   0   0
    90   115      0   0   0
    90   120      0   0   0
    90    61      0   0   1
    90    86      0   0   1
    90    91      0   0   1
    91    61      0   0   0
    91    66      0   0   0
    91    67      0   0   0
    91    86      0   0   0
    91    92      0   0   0
    91    96      0   0   0
    91    97      0   0   0
    91   116      0   0   0
    91   121      0   0   0
    91    90      0   0  -1
    91    95      0   0  -1
    91   120      0   0  -1
    92    62      0   0   0
    92    67      0   0   0
    92    68      0   0   0
    92    86      0   0   0
    92    87      0   0   0
    92    91      0   0   0
    92    93      0   0   0
    92    97      0   0   0
    92    98      0   0   0
    92   116      0   0   0
    92   117      0   0   0
    92   122      0   0   0
    93    63      0   0   0
    93    68      0   0   0
    93    69      0   0   0
    93    87      0   0   0
    93    88      0   0   0
    93    92      0   0   0
    93    94      0   0   0
    93    98      0   0   0
    93    99      0   0   0
    93   117      0   0   0
    93   118      0   0   0
    93   123      0   0   0
    94    64      0   0   0
    94    69      0   0   0
    94    70      0   0   0
    94    88      0   0   0
    94    89      0   0   0
    94    93      0   0   0
    94    95      0   0   0
    94    99      0   0   0
    94   100      0   0   0
    94   118      0   0   0
    94   119      0   0   0
    94   124      0   0   0
    95    65      0   0   0
    95    70      0   0   0
    95    89      0   0   0
    95    90      0   0   0
    95    94      0   0   0
    95   100      0   0   0
    95   119      0   0   0
    95   120      0   0   0
    95   125      0   0   0
    95    66      0   0   1
    95    91      0   0   1
    95    96      0   0   1
    96    66      0   0   0
    96    71      0   0   0
    96    72      0   0   0
    96    91      0   0   0
    96    97      0   0   0
    96   121      0   0   0
    96    76      0   1   0
    96    77      0   1   0
    96   101      0   1   0
    96    95      0   0  -1
    96   100      0   0  -1
    96   125      0   0  -1
    97    67      0   0   0
    97    72      0   0   0
    97    73      0   0   0
    97    91      0   0   0
    97    92      0   0   0
    97    96      0   0   0
    97    98      0   0   0
    97   121      0   0   0
    97   122      0   0   0
    97    77      0   1   0
    97    78      0   1   0
    97   102      0   1   0
    98    68      0   0   0
    98    73      0   0   0
    98    74      0   0   0
    98    92      0   0   0
    98    93      0   0   0
    98    97      0   0   0
    98    99      0   0   0
    98   122      0   0   0
    98   123      0   0   0
    98    78      0   1   0
    98    79      0   1   0
    98   103      0   1   0
    99    69      0   0   0
    99    74      0   0   0
    99    75      0   0   0
    99    93      0   0   0
    99    94      0   0   0
    99    98      0   0   0
    99   100      0   0   0
    99   123      0   0   0
    99   124      0   0   0
    99    79      0   1   0
    99    80      0   1   0
    99   104      0   1   0
   100    70      0   0   0
   100    75      0   0   0
   100    94      0   0   0
   100    95      0   0   0
   100    99      0   0   0
   100   124      0   0   0
   100   125      0   0   0
   100    76      0   1   1
   100    80      0   1   0
   100   105      0   1   0
   100    71      0   0   1
   100    96      0   0   1
   101    76      0   0   0
   101    77      0   0   0
   101   102      0   0   0
   101   106      0   0   0
   101   107      0   0   0
   101     1      1   0   0
   101     6      1   0   0
   101     5      1   0  -1
   101   105      0   0  -1
   101    96      0  -1   0
   101   121      0  -1   0
   101   125      0  -1  -1
   102    77      0   0   0
   102    78      0   0   0
   102   101      0   0   0
   102   103      0   0   0
   102   107      0   0   0
   102   108      0   0   0
   102     1      1   0   0
   102     2      1   0   0
   102     7      1   0   0
   102    97      0  -1   0
   102   121      0  -1   0
   102   122      0  -1   0
   103    78      0   0   0
   103    79      0   0   0
   103   102      0   0   0
   103   104      0   0   0
   103   108      0   0   0
   103   109      0   0   0
   103     2      1   0   0
   103     3      1   0   0
   103     8      1   0   0
   103    98      0  -1   0
   103   122      0  -1   0
   103   123      0  -1   0
   104    79      0   0   0
   104    80      0   0   0
   104   103      0   0   0
   104   105      0   0   0
   104   109      0   0   0
   104   110      0   0   0
   104     3      1   0   0
   104     4      1   0   0
   104     9      1   0   0
   104    99      0  -1   0
   104   123      0  -1   0
   104   124      0  -1   0
   105    80      0   0   0
   105   104      0   0   0
   105   110      0   0   0
   105     4      1   0   0
   105     5      1   0   0
   105    10      1   0   0
   105    76      0   0   1
   105   101      0   0   1
   105   106      0   0   1
   105   100      0  -1   0
   105   124      0  -1   0
   105   125      0  -1   0
   106    76      0   0   0
   106    81      0   0   0
   106    82      0   0   0
   106   101      0   0   0
   106   107      0   0   0
   106   111      0   0   0
   106   112      0   0   0
   106     6      1   0   0
   106    11      1   0   0
   106    10      1   0  -1
   106   105      0   0  -1
   106   110      0   0  -1
   107    77      0   0   0
   107    82      0   0   0
   107    83      0   0   0
   107   101      0   0   0
   107   102      0   0   0
   107   106      0   0   0
   107   108      0   0   0
   107   112      0   0   0
   107   113      0   0   0
   107     6      1   0   0
   107     7      1   0   0
   107    12      1   0   0
   108    78      0   0   0
   108    83      0   0   0
   108    84      0   0   0
   108   102      0   0   0
   108   103      0   0   0
   108   107      0   0   0
   108   109      0   0   0
   108   113      0   0   0
   108   114      0   0   0
   108     7      1   0   0
   108     8      1   0   0
   108    13      1   0   0
   109    79      0   0   0
   109    84      0   0   0
   109    85      0   0   0
   109   103      0   0   0
   109   104      0   0   0
   109   108      0   0   0
   109   110      0   0   0
   109   114      0   0   0
   109   115      0   0   0
   109     8      1   0   0
   109     9      1   0   0
   109    14      1   0   0
   110    80      0   0   0
   110    85      0   0   0
   110   104      0   0   0
   110   105      0   0   0
   110   109      0   0   0
   110   115      0   0   0
   110     9      1   0   0
   110    10      1   0   0
   110    15      1   0   0
   110    81      0   0   1
   110   106      0   0   1
   110   111      0   0   1
   111    81      0   0   0
   111    86      0   0   0
   111    87      0   0   0
   111   106      0   0   0
   111   112      0   0   0
   111   116      0   0   0
   111   117      0   0   0
   111    11      1   0   0
   111    16      1   0   0
   111    15      1   0  -1
   111   110      0   0  -1
   111   115      0   0  -1
   112    82      0   0   0
   112    87      0   0   0
   112    88      0   0   0
   112   106      0   0   0
   112   107      0   0   0
   112   111      0   0   0
   112   113      0   0   0
   112   117      0   0   0
   112   118      0   0   0
   112    11      1   0   0
   112    12      1   0   0
   112    17      1   0   0
   113    83      0   0   0
   113    88      0   0   0
   113    89      0   0   0
   113   107      0   0   0
   113   108      0   0   0
   113   112      0   0   0
   113   114      0   0   0
   113   118      0   0   0
   113   119      0   0   0
   113    12      1   0   0
   113    13      1   0   0
   113    18      1   0   0
   114    84      0   0   0
   114    89      0   0   0
   114    90      0   0   0
   114   108      0   0   0
   114   109      0   0   0
   114   113      0   0   0
   114   115      0   0   0
   114   119      0   0   0
   114   120      0   0   0
   114    13      1   0   0
   114    14      1   0   0
   114    19      1   0   0
   115    85      0   0   0
   115    90      0   0   0
   115   109      0   0   0
   115   110      0   0   0
   115   114      0   0   0
   115   120      0   0   0
   115    14      1   0   0
   115    15      1   0   0
   115    20      1   0   0
   115    86      0   0   1
   115   111      0   0   1
   115   116      0   0   1
   116    86      0   0   0
   116    91      0   0   0
   116    92      0   0   0
   116   111      0   0   0
   116   117      0   0   0
   116   121      0   0   0
   116   122      0   0   0
   116    16      1   0   0
   116    21      1   0   0
   116    20      1   0  -1
   116   115      0   0  -1
   116   120      0   0  -1
   117    87      0   0   0
   117    92      0   0   0
   117    93      0   0   0
   117   111      0   0   0
   117   112      0   0   0
   117   116      0   0   0
   117   118      0   0   0
   117   122      0   0   0
   117   123      0   0   0
   117    16      1   0   0
   117    17      1   0   0
   117    22      1   0   0
   118    88      0   0   0
   118    93      0   0   0
   118    94      0   0   0
   118   112      0   0   0
   118   113      0   0   0
   118   117      0   0   0
   118   119      0   0   0
   118   123      0   0   0
   118   124      0   0   0
   118    17      1   0   0
   118    18      1   0   0
   118    23      1   0   0
   119    89      0   0   0
   119    94      0   0   0
   119    95      0   0   0
   119   113      0   0   0
   119   114      0   0   0
   119   118      0   0   0
   119   120      0   0   0
   119   124      0   0   0
   119   125      0   0   0
   119    18      1   0   0
   119    19      1   0   0
   119    24      1   0   0
   120    90      0   0   0
   120    95      0   0   0
   120   114      0   0   0
   120   115      0   0   0
   120   119      0   0   0
   120   125      0   0   0
   120    19      1   0   0
   120    20      1   0   0
   120    25      1   0   0
   120    91      0   0   1
   120   116      0   0   1
   120   121      0   0   1
   121    91      0   0   0
   121    96      0   0   0
   121    97      0   0   0
   121   116      0   0   0
   121   122      0   0   0
   121     1      1   1   0
   121    21      1   0   0
   121    25      1   0  -1
   121   101      0   1   0
   121   102      0   1   0
   121   120      0   0  -1
   121   125      0   0  -1
   122    92      0   0   0
   122    97      0   0   0
   122    98      0   0   0
   122   116      0   0   0
   122   117      0   0   0
   122   121      0   0   0
   122   123      0   0   0
   122     2      1   1   0
   122    21      1   0   0
   122    22      1   0   0
   122   102      0   1   0
   122   103      0   1   0
   123    93      0   0   0
   123    98      0   0   0
   123    99      0   0   0
   123   117      0   0   0
   123   118      0   0   0
   123   122      0   0   0
   123   124      0   0   0
   123     3      1   1   0
   123    22      1   0   0
   123    23      1   0   0
   123   103      0   1   0
   123   104      0   1   0
   124    94      0   0   0
   124    99      0   0   0
   124   100      0   0   0
   124   118      0   0   0
   124   119      0   0   0
   124   123      0   0   0
   124   125      0   0   0
   124     4      1   1   0
   124    23      1   0   0
   124    24      1   0   0
   124   104      0   1   0
   124   105      0   1   0
   125    95      0   0   0
   125   100      0   0   0
   125   119      0   0   0
   125   120      0   0   0
   125   124      0   0   0
   125     5      1   1   0
   125    24      1   0   0
   125    25      1   0   0
   125   101      0   1   1
   125   105      0   1   0
   125    96      0   0   1
   125   121      0   0   1
end nnkpts

begin exclude_bands
   8
   1
   2
   3
   4
   5
   6
   7
   8
end exclude_bands
