
             +---------------------------------------------------+
             |                                                   |
             |                   WANNIER90                       |
             |                                                   |
             +---------------------------------------------------+
             |                                                   |
             |        Welcome to the Maximally-Localized         |
             |        Generalized Wannier Functions code         |
             |            http://www.wannier.org                 |
             |                                                   |
             |                                                   |
             |  Wannier90 Developer Group:                       |
             |    Giovanni Pizzi    (EPFL)                       |
             |    Valerio Vitale    (Cambridge)                  |
             |    David Vanderbilt  (Rutgers University)         |
             |    Nicola Marzari    (EPFL)                       |
             |    Ivo Souza         (Universidad del Pais Vasco) |
             |    Arash A. Mostofi  (Imperial College London)    |
             |    Jonathan R. Yates (University of Oxford)       |
             |                                                   |
             |  For the full list of Wannier90 3.x authors,      |
             |  please check the code documentation and the      |
             |  README on the GitHub page of the code            |
             |                                                   |
             |                                                   |
             |  Please cite                                      |
             |                                                   |
             |  [ref] "Wannier90 as a community code:            |
             |        new features and applications",            |
             |        G. Pizzi et al., J. Phys. Cond. Matt. 32,  |
             |        165902 (2020).                             |
             |        http://doi.org/10.1088/1361-648X/ab51ff    |
             |                                                   |
             |  in any publications arising from the use of      |
             |  this code. For the method please cite            |
             |                                                   |
             |  [ref] "Maximally Localized Generalised Wannier   |
             |         Functions for Composite Energy Bands"     |
             |         N. Marzari and D. Vanderbilt              |
             |         Phys. Rev. B 56 12847 (1997)              |
             |                                                   |
             |  [ref] "Maximally Localized Wannier Functions     |
             |         for Entangled Energy Bands"               |
             |         I. Souza, N. Marzari and D. Vanderbilt    |
             |         Phys. Rev. B 65 035109 (2001)             |
             |                                                   |
             |                                                   |
             | Copyright (c) 1996-2020                           |
             |        The Wannier90 Developer Group and          |
             |        individual contributors                    |
             |                                                   |
             |      Release: 3.1.0        5th March    2020      |
             |                                                   |
             | This program is free software; you can            |
             | redistribute it and/or modify it under the terms  |
             | of the GNU General Public License as published by |
             | the Free Software Foundation; either version 2 of |
             | the License, or (at your option) any later version|
             |                                                   |
             | This program is distributed in the hope that it   |
             | will be useful, but WITHOUT ANY WARRANTY; without |
             | even the implied warranty of MERCHANTABILITY or   |
             | FITNESS FOR A PARTICULAR PURPOSE. See the GNU     |
             | General Public License for more details.          |
             |                                                   |
             | You should have received a copy of the GNU General|
             | Public License along with this program; if not,   |
             | write to the Free Software Foundation, Inc.,      |
             | 675 Mass Ave, Cambridge, MA 02139, USA.           |
             |                                                   |
             +---------------------------------------------------+
             |    Execution started on  5Aug2023 at 10:27:35     |
             +---------------------------------------------------+
 
 ******************************************************************************
 * -> Using CODATA 2006 constant values                                       *
 *    (http://physics.nist.gov/cuu/Constants/index.html)                      *
 * -> Using Bohr value from CODATA                                            *
 ******************************************************************************
 

 Running in parallel on   8 CPUs


                                    ------
                                    SYSTEM
                                    ------

                              Lattice Vectors (Ang)
                    a_1     1.434996   1.434996   1.434996
                    a_2    -1.434996   1.434996   1.434996
                    a_3    -1.434996  -1.434996   1.434996

                   Unit Cell Volume:      11.81986  (Ang^3)

                        Reciprocal-Space Vectors (Ang^-1)
                    b_1     2.189269   0.000000   2.189269
                    b_2    -2.189269   2.189269   0.000000
                    b_3     0.000000  -2.189269   2.189269
  
 *----------------------------------------------------------------------------*
 |   Site       Fractional Coordinate          Cartesian Coordinate (Ang)     |
 +----------------------------------------------------------------------------+
 | Fe   1   0.00000   0.00000   0.00000   |    0.00000   0.00000   0.00000    |
 *----------------------------------------------------------------------------*
                                ------------
                                K-POINT GRID
                                ------------
  
             Grid size =  5 x  5 x  5      Total points =  125
  
  
 *---------------------------------- MAIN ------------------------------------*
 |  Number of Wannier Functions               :                16             |
 |  Number of Objective Wannier Functions     :                16             |
 |  Number of input Bloch states              :                22             |
 |  Output verbosity (1=low, 5=high)          :                 1             |
 |  Timing Level (1=low, 5=high)              :                 1             |
 |  Optimisation (0=memory, 3=speed)          :                 3             |
 |  Length Unit                               :               Ang             |
 |  Post-processing setup (write *.nnkp)      :                 F             |
 |  Using Gamma-only branch of algorithms     :                 F             |
 *----------------------------------------------------------------------------*
 *------------------------------- WANNIERISE ---------------------------------*
 |  Total number of iterations                :              7000             |
 |  Number of CG steps before reset           :               200             |
 |  Trial step length for line search         :             2.000             |
 |  Convergence tolerence                     :         0.100E-09             |
 |  Convergence window                        :                 3             |
 |  Iterations between writing output         :                 1             |
 |  Iterations between backing up to disk     :               100             |
 |  Write r^2_nm to file                      :                 F             |
 |  Write xyz WF centres to file              :                 F             |
 |  Write on-site energies <0n|H|0n> to file  :                 F             |
 |  Use guiding centre to control phases      :                 F             |
 |  Use phases for initial projections        :                 F             |
 *----------------------------------------------------------------------------*
 *------------------------------- DISENTANGLE --------------------------------*
 |  Using band disentanglement                :                 T             |
 |  Total number of iterations                :              7000             |
 |  Mixing ratio                              :             0.500             |
 |  Convergence tolerence                     :         1.000E-10             |
 |  Convergence window                        :                 3             |
 *----------------------------------------------------------------------------*
 *-------------------------------- PLOTTING ----------------------------------*
 |  Plotting interpolated bandstructure       :                 T             |
 |   Number of K-path sections                :                 6             |
 |   Divisions along first K-path section     :               100             |
 |   Output format                            :           gnuplot             |
 |   Output mode                              :               s-k             |
 *----------------------------------------------------------------------------*
 |   K-space path sections:                                                   |
 |    From: G       0.000  0.000  0.000     To: H       0.500  0.500 -0.500   |
 |    From: H       0.500  0.500 -0.500     To: N       0.500  0.000 -0.500   |
 |    From: N       0.500  0.000 -0.500     To: G       0.000  0.000  0.000   |
 |    From: G       0.000  0.000  0.000     To: P       0.750  0.250 -0.250   |
 |    From: P       0.750  0.250 -0.250     To: H       0.500  0.500 -0.500   |
 |    From: P       0.750  0.250 -0.250     To: N       0.500  0.000 -0.500   |
 *----------------------------------------------------------------------------*
 Time to read parameters        0.035 (sec)

 *---------------------------------- K-MESH ----------------------------------*
 +----------------------------------------------------------------------------+
 |                    Distance to Nearest-Neighbour Shells                    |
 |                    ------------------------------------                    |
 |          Shell             Distance (Ang^-1)          Multiplicity         |
 |          -----             -----------------          ------------         |
 |             1                   0.619219                     12            |
 |             2                   0.875708                      6            |
 |             3                   1.072518                     24            |
 |             4                   1.238437                     12            |
 |             5                   1.384615                     24            |
 |             6                   1.516770                      8            |
 |             7                   1.638299                     48            |
 |             8                   1.751415                      6            |
 |             9                   1.857656                     36            |
 |            10                   1.958142                     24            |
 |            11                   2.053716                     24            |
 |            12                   2.145037                     24            |
 |            13                   2.232625                     72            |
 |            14                   2.398224                     48            |
 |            15                   2.476875                     12            |
 |            16                   2.553104                     48            |
 |            17                   2.627123                     30            |
 |            18                   2.699112                     72            |
 |            19                   2.769230                     24            |
 |            20                   2.837617                     48            |
 |            21                   2.904393                     24            |
 |            22                   2.969669                     48            |
 |            23                   3.033540                      8            |
 |            24                   3.096094                     84            |
 |            25                   3.157408                     24            |
 |            26                   3.217555                     96            |
 |            27                   3.276598                     48            |
 |            28                   3.334595                     24            |
 |            29                   3.447664                     96            |
 |            30                   3.502830                      6            |
 |            31                   3.557141                     96            |
 |            32                   3.610635                     48            |
 |            33                   3.663347                     48            |
 |            34                   3.715312                     36            |
 |            35                   3.766561                    120            |
 |            36                   3.817121                     24            |
 +----------------------------------------------------------------------------+
 | The b-vectors are chosen automatically                                     |
 | The following shells are used:   1                                         |
 +----------------------------------------------------------------------------+
 |                        Shell   # Nearest-Neighbours                        |
 |                        -----   --------------------                        |
 |                          1              12                                 |
 +----------------------------------------------------------------------------+
 | Completeness relation is fully satisfied [Eq. (B1), PRB 56, 12847 (1997)]  |
 +----------------------------------------------------------------------------+
 |                  b_k Vectors (Ang^-1) and Weights (Ang^2)                  |
 |                  ----------------------------------------                  |
 |            No.         b_k(x)      b_k(y)      b_k(z)        w_b           |
 |            ---        --------------------------------     --------        |
 |             1         0.000000   -0.437854    0.437854     0.652006        |
 |             2        -0.437854    0.437854    0.000000     0.652006        |
 |             3        -0.437854    0.000000    0.437854     0.652006        |
 |             4         0.437854    0.000000    0.437854     0.652006        |
 |             5         0.000000    0.437854    0.437854     0.652006        |
 |             6         0.000000    0.437854   -0.437854     0.652006        |
 |             7         0.437854    0.437854    0.000000     0.652006        |
 |             8         0.437854   -0.437854    0.000000     0.652006        |
 |             9         0.437854    0.000000   -0.437854     0.652006        |
 |            10        -0.437854    0.000000   -0.437854     0.652006        |
 |            11        -0.437854   -0.437854    0.000000     0.652006        |
 |            12         0.000000   -0.437854   -0.437854     0.652006        |
 +----------------------------------------------------------------------------+
 |                           b_k Directions (Ang^-1)                          |
 |                           -----------------------                          |
 |            No.           x           y           z                         |
 |            ---        --------------------------------                     |
 |             1         0.000000   -0.437854    0.437854                     |
 |             2        -0.437854    0.437854    0.000000                     |
 |             3        -0.437854    0.000000    0.437854                     |
 |             4         0.437854    0.000000    0.437854                     |
 |             5         0.000000    0.437854    0.437854                     |
 |             6         0.437854    0.437854    0.000000                     |
 +----------------------------------------------------------------------------+
  
 Time to get kmesh              0.092 (sec)
 *============================================================================*
 |                              MEMORY ESTIMATE                               |
 |         Maximum RAM allocated during each phase of the calculation         |
 *============================================================================*
 |                        Disentanglement           18.91 Mb                  |
 |                            Wannierise:           15.38 Mb                  |
 |                          plot_wannier:           15.38 Mb                  |
 *----------------------------------------------------------------------------*
  
 Starting a new Wannier90 calculation ...


 Reading overlaps from Fe.mmn    :  Created on  5Aug2023 at 10:26:33

 Reading projections from Fe.amn :  Created on  5Aug2023 at 10:26:27

 Time to read overlaps          0.690 (sec)

 *------------------------------- DISENTANGLE --------------------------------*
 +----------------------------------------------------------------------------+
 |                              Energy  Windows                               |
 |                              ---------------                               |
 |                   Outer:    9.45709  to   52.55769  (eV)                   |
 |                   Inner:    9.45709  to   22.00000  (eV)                   |
 +----------------------------------------------------------------------------+
   Number of target bands to extract:   16

                   Unitarised projection of Wannier functions                  
                   ------------------------------------------                  
   A_mn = <psi_m|g_n> --> S = A.A^+ --> U = S^-1/2.A
   In dis_project... done
   Using an inner window (linner = T)
   In dis_proj_froz... done

                   Extraction of optimally-connected subspace                  
                   ------------------------------------------                  
 +---------------------------------------------------------------------+<-- DIS
 |  Iter     Omega_I(i-1)      Omega_I(i)      Delta (frac.)    Time   |<-- DIS
 +---------------------------------------------------------------------+<-- DIS
       1      16.06412287      15.60506153       2.942E-02      0.00    <-- DIS
       2      15.58856615      14.43176191       8.016E-02      0.01    <-- DIS
       3      14.79392376      13.47638689       9.777E-02      0.01    <-- DIS
       4      13.91139516      12.16823889       1.433E-01      0.02    <-- DIS
       5      12.91757637      11.79418287       9.525E-02      0.02    <-- DIS
       6      12.26498517      11.16710092       9.831E-02      0.03    <-- DIS
       7      11.71586893      11.03565760       6.164E-02      0.03    <-- DIS
       8      11.37330556      10.97438755       3.635E-02      0.04    <-- DIS
       9      11.17264706      10.93485154       2.175E-02      0.04    <-- DIS
      10      11.05333930      10.90648020       1.347E-02      0.05    <-- DIS
      11      10.98018417      10.88510501       8.735E-03      0.06    <-- DIS
      12      10.93333332      10.86853616       5.962E-03      0.07    <-- DIS
      13      10.90182371      10.85544993       4.272E-03      0.07    <-- DIS
      14      10.87958995      10.84497654       3.192E-03      0.08    <-- DIS
      15      10.86322158      10.83651153       2.465E-03      0.08    <-- DIS
      16      10.85074767      10.82961750       1.951E-03      0.08    <-- DIS
      17      10.84098631      10.82396843       1.572E-03      0.09    <-- DIS
      18      10.83319660      10.81931571       1.283E-03      0.09    <-- DIS
      19      10.82689128      10.81546653       1.056E-03      0.10    <-- DIS
      20      10.82173433      10.81226934       8.754E-04      0.10    <-- DIS
      21      10.81748396      10.80960384       7.290E-04      0.10    <-- DIS
      22      10.81395988      10.80737379       6.094E-04      0.11    <-- DIS
      23      10.81102389      10.80550169       5.111E-04      0.11    <-- DIS
      24      10.80856784      10.80392487       4.297E-04      0.11    <-- DIS
      25      10.80650580      10.80259239       3.623E-04      0.12    <-- DIS
      26      10.80476874      10.80146275       3.061E-04      0.12    <-- DIS
      27      10.80330082      10.80050203       2.591E-04      0.13    <-- DIS
      28      10.80205653      10.79968237       2.198E-04      0.13    <-- DIS
      29      10.80099868      10.79898091       1.868E-04      0.13    <-- DIS
      30      10.80009672      10.79837878       1.591E-04      0.14    <-- DIS
      31      10.79932550      10.79786037       1.357E-04      0.14    <-- DIS
      32      10.79866424      10.79741276       1.159E-04      0.15    <-- DIS
      33      10.79809573      10.79702519       9.915E-05      0.15    <-- DIS
      34      10.79760568      10.79668869       8.493E-05      0.15    <-- DIS
      35      10.79718218      10.79639576       7.284E-05      0.16    <-- DIS
      36      10.79681530      10.79614011       6.254E-05      0.16    <-- DIS
      37      10.79649670      10.79591645       5.375E-05      0.16    <-- DIS
      38      10.79621939      10.79572030       4.623E-05      0.17    <-- DIS
      39      10.79597749      10.79554790       3.979E-05      0.17    <-- DIS
      40      10.79576603      10.79539603       3.427E-05      0.18    <-- DIS
      41      10.79558078      10.79526194       2.953E-05      0.18    <-- DIS
      42      10.79541817      10.79514332       2.546E-05      0.18    <-- DIS
      43      10.79527516      10.79503816       2.195E-05      0.19    <-- DIS
      44      10.79514914      10.79494475       1.893E-05      0.19    <-- DIS
      45      10.79503789      10.79486160       1.633E-05      0.19    <-- DIS
      46      10.79493949      10.79478745       1.408E-05      0.20    <-- DIS
      47      10.79485231      10.79472120       1.215E-05      0.20    <-- DIS
      48      10.79477493      10.79466188       1.047E-05      0.21    <-- DIS
      49      10.79470612      10.79460868       9.027E-06      0.21    <-- DIS
      50      10.79464483      10.79456086       7.779E-06      0.21    <-- DIS
      51      10.79459013      10.79451781       6.700E-06      0.22    <-- DIS
      52      10.79454123      10.79447896       5.768E-06      0.22    <-- DIS
      53      10.79449744      10.79444386       4.964E-06      0.22    <-- DIS
      54      10.79445814      10.79441206       4.269E-06      0.23    <-- DIS
      55      10.79442282      10.79438321       3.670E-06      0.23    <-- DIS
      56      10.79439101      10.79435697       3.153E-06      0.24    <-- DIS
      57      10.79436230      10.79433307       2.707E-06      0.24    <-- DIS
      58      10.79433634      10.79431126       2.324E-06      0.24    <-- DIS
      59      10.79431283      10.79429130       1.994E-06      0.25    <-- DIS
      60      10.79429148      10.79427301       1.711E-06      0.25    <-- DIS
      61      10.79427206      10.79425622       1.468E-06      0.25    <-- DIS
      62      10.79425435      10.79424076       1.259E-06      0.26    <-- DIS
      63      10.79423818      10.79422651       1.081E-06      0.26    <-- DIS
      64      10.79422338      10.79421335       9.291E-07      0.27    <-- DIS
      65      10.79420979      10.79420116       7.996E-07      0.27    <-- DIS
      66      10.79419731      10.79418986       6.897E-07      0.27    <-- DIS
      67      10.79418580      10.79417936       5.965E-07      0.28    <-- DIS
      68      10.79417517      10.79416958       5.178E-07      0.28    <-- DIS
      69      10.79416533      10.79416046       4.517E-07      0.28    <-- DIS
      70      10.79415621      10.79415194       3.962E-07      0.29    <-- DIS
      71      10.79414773      10.79414396       3.500E-07      0.29    <-- DIS
      72      10.79413984      10.79413647       3.117E-07      0.30    <-- DIS
      73      10.79413247      10.79412944       2.801E-07      0.30    <-- DIS
      74      10.79412557      10.79412283       2.542E-07      0.30    <-- DIS
      75      10.79411911      10.79411660       2.333E-07      0.31    <-- DIS
      76      10.79411305      10.79411071       2.165E-07      0.31    <-- DIS
      77      10.79410735      10.79410515       2.032E-07      0.32    <-- DIS
      78      10.79410197      10.79409989       1.929E-07      0.32    <-- DIS
      79      10.79409689      10.79409490       1.851E-07      0.32    <-- DIS
      80      10.79409209      10.79409016       1.793E-07      0.33    <-- DIS
      81      10.79408755      10.79408566       1.752E-07      0.33    <-- DIS
      82      10.79408324      10.79408137       1.726E-07      0.33    <-- DIS
      83      10.79407914      10.79407729       1.710E-07      0.34    <-- DIS
      84      10.79407524      10.79407340       1.704E-07      0.34    <-- DIS
      85      10.79407153      10.79406969       1.706E-07      0.35    <-- DIS
      86      10.79406799      10.79406614       1.713E-07      0.35    <-- DIS
      87      10.79406460      10.79406274       1.724E-07      0.35    <-- DIS
      88      10.79406137      10.79405949       1.739E-07      0.36    <-- DIS
      89      10.79405827      10.79405637       1.756E-07      0.36    <-- DIS
      90      10.79405530      10.79405339       1.774E-07      0.36    <-- DIS
      91      10.79405245      10.79405052       1.793E-07      0.37    <-- DIS
      92      10.79404972      10.79404776       1.813E-07      0.37    <-- DIS
      93      10.79404709      10.79404511       1.832E-07      0.38    <-- DIS
      94      10.79404456      10.79404257       1.851E-07      0.38    <-- DIS
      95      10.79404213      10.79404011       1.869E-07      0.38    <-- DIS
      96      10.79403978      10.79403775       1.886E-07      0.39    <-- DIS
      97      10.79403752      10.79403547       1.902E-07      0.39    <-- DIS
      98      10.79403534      10.79403327       1.917E-07      0.40    <-- DIS
      99      10.79403323      10.79403115       1.931E-07      0.40    <-- DIS
     100      10.79403120      10.79402910       1.943E-07      0.40    <-- DIS
     101      10.79402923      10.79402712       1.954E-07      0.41    <-- DIS
     102      10.79402732      10.79402520       1.963E-07      0.41    <-- DIS
     103      10.79402547      10.79402334       1.972E-07      0.41    <-- DIS
     104      10.79402368      10.79402155       1.979E-07      0.42    <-- DIS
     105      10.79402195      10.79401980       1.986E-07      0.42    <-- DIS
     106      10.79402026      10.79401811       1.991E-07      0.43    <-- DIS
     107      10.79401863      10.79401647       1.995E-07      0.43    <-- DIS
     108      10.79401704      10.79401488       1.999E-07      0.43    <-- DIS
     109      10.79401549      10.79401333       2.002E-07      0.44    <-- DIS
     110      10.79401398      10.79401182       2.004E-07      0.44    <-- DIS
     111      10.79401251      10.79401035       2.006E-07      0.45    <-- DIS
     112      10.79401108      10.79400891       2.008E-07      0.45    <-- DIS
     113      10.79400968      10.79400751       2.010E-07      0.45    <-- DIS
     114      10.79400832      10.79400615       2.011E-07      0.46    <-- DIS
     115      10.79400698      10.79400481       2.013E-07      0.46    <-- DIS
     116      10.79400567      10.79400350       2.015E-07      0.46    <-- DIS
     117      10.79400439      10.79400221       2.017E-07      0.47    <-- DIS
     118      10.79400313      10.79400095       2.020E-07      0.47    <-- DIS
     119      10.79400190      10.79399971       2.023E-07      0.48    <-- DIS
     120      10.79400068      10.79399849       2.027E-07      0.48    <-- DIS
     121      10.79399948      10.79399729       2.032E-07      0.48    <-- DIS
     122      10.79399830      10.79399610       2.039E-07      0.49    <-- DIS
     123      10.79399713      10.79399493       2.046E-07      0.49    <-- DIS
     124      10.79399598      10.79399376       2.055E-07      0.49    <-- DIS
     125      10.79399483      10.79399261       2.065E-07      0.50    <-- DIS
     126      10.79399370      10.79399146       2.077E-07      0.50    <-- DIS
     127      10.79399257      10.79399031       2.091E-07      0.51    <-- DIS
     128      10.79399144      10.79398917       2.107E-07      0.51    <-- DIS
     129      10.79399032      10.79398802       2.125E-07      0.51    <-- DIS
     130      10.79398919      10.79398688       2.145E-07      0.52    <-- DIS
     131      10.79398807      10.79398573       2.168E-07      0.52    <-- DIS
     132      10.79398694      10.79398457       2.194E-07      0.52    <-- DIS
     133      10.79398580      10.79398340       2.222E-07      0.53    <-- DIS
     134      10.79398466      10.79398222       2.254E-07      0.53    <-- DIS
     135      10.79398350      10.79398103       2.289E-07      0.53    <-- DIS
     136      10.79398233      10.79397982       2.327E-07      0.54    <-- DIS
     137      10.79398114      10.79397858       2.369E-07      0.54    <-- DIS
     138      10.79397993      10.79397733       2.415E-07      0.55    <-- DIS
     139      10.79397870      10.79397604       2.466E-07      0.55    <-- DIS
     140      10.79397745      10.79397473       2.521E-07      0.55    <-- DIS
     141      10.79397617      10.79397338       2.580E-07      0.56    <-- DIS
     142      10.79397486      10.79397200       2.645E-07      0.56    <-- DIS
     143      10.79397351      10.79397058       2.715E-07      0.57    <-- DIS
     144      10.79397212      10.79396911       2.791E-07      0.57    <-- DIS
     145      10.79397069      10.79396759       2.873E-07      0.57    <-- DIS
     146      10.79396922      10.79396602       2.961E-07      0.58    <-- DIS
     147      10.79396770      10.79396440       3.056E-07      0.58    <-- DIS
     148      10.79396612      10.79396271       3.158E-07      0.58    <-- DIS
     149      10.79396449      10.79396096       3.268E-07      0.59    <-- DIS
     150      10.79396279      10.79395913       3.386E-07      0.59    <-- DIS
     151      10.79396102      10.79395723       3.512E-07      0.59    <-- DIS
     152      10.79395919      10.79395525       3.647E-07      0.60    <-- DIS
     153      10.79395727      10.79395318       3.791E-07      0.60    <-- DIS
     154      10.79395527      10.79395101       3.946E-07      0.61    <-- DIS
     155      10.79395318      10.79394874       4.112E-07      0.61    <-- DIS
     156      10.79395099      10.79394636       4.288E-07      0.61    <-- DIS
     157      10.79394870      10.79394387       4.477E-07      0.62    <-- DIS
     158      10.79394630      10.79394125       4.678E-07      0.62    <-- DIS
     159      10.79394378      10.79393850       4.893E-07      0.63    <-- DIS
     160      10.79394114      10.79393561       5.121E-07      0.63    <-- DIS
     161      10.79393836      10.79393257       5.365E-07      0.63    <-- DIS
     162      10.79393544      10.79392937       5.625E-07      0.64    <-- DIS
     163      10.79393237      10.79392600       5.901E-07      0.64    <-- DIS
     164      10.79392914      10.79392245       6.195E-07      0.64    <-- DIS
     165      10.79392573      10.79391871       6.508E-07      0.65    <-- DIS
     166      10.79392214      10.79391476       6.842E-07      0.65    <-- DIS
     167      10.79391836      10.79391059       7.196E-07      0.65    <-- DIS
     168      10.79391437      10.79390619       7.572E-07      0.66    <-- DIS
     169      10.79391015      10.79390155       7.973E-07      0.66    <-- DIS
     170      10.79390571      10.79389664       8.398E-07      0.67    <-- DIS
     171      10.79390101      10.79389146       8.850E-07      0.67    <-- DIS
     172      10.79389605      10.79388598       9.330E-07      0.67    <-- DIS
     173      10.79389081      10.79388019       9.840E-07      0.68    <-- DIS
     174      10.79388527      10.79387407       1.038E-06      0.68    <-- DIS
     175      10.79387942      10.79386759       1.096E-06      0.69    <-- DIS
     176      10.79387322      10.79386074       1.157E-06      0.69    <-- DIS
     177      10.79386668      10.79385349       1.222E-06      0.69    <-- DIS
     178      10.79385975      10.79384582       1.290E-06      0.70    <-- DIS
     179      10.79385242      10.79383770       1.363E-06      0.70    <-- DIS
     180      10.79384466      10.79382911       1.441E-06      0.70    <-- DIS
     181      10.79383645      10.79382001       1.523E-06      0.71    <-- DIS
     182      10.79382776      10.79381038       1.610E-06      0.71    <-- DIS
     183      10.79381857      10.79380019       1.703E-06      0.72    <-- DIS
     184      10.79380883      10.79378939       1.801E-06      0.72    <-- DIS
     185      10.79379852      10.79377795       1.905E-06      0.72    <-- DIS
     186      10.79378760      10.79376584       2.016E-06      0.73    <-- DIS
     187      10.79377604      10.79375302       2.133E-06      0.73    <-- DIS
     188      10.79376379      10.79373943       2.257E-06      0.73    <-- DIS
     189      10.79375082      10.79372504       2.389E-06      0.74    <-- DIS
     190      10.79373708      10.79370979       2.528E-06      0.74    <-- DIS
     191      10.79372253      10.79369364       2.677E-06      0.75    <-- DIS
     192      10.79370712      10.79367653       2.834E-06      0.75    <-- DIS
     193      10.79369079      10.79365841       3.000E-06      0.75    <-- DIS
     194      10.79367349      10.79363921       3.176E-06      0.76    <-- DIS
     195      10.79365516      10.79361886       3.363E-06      0.76    <-- DIS
     196      10.79363575      10.79359731       3.562E-06      0.76    <-- DIS
     197      10.79361518      10.79357447       3.772E-06      0.77    <-- DIS
     198      10.79359339      10.79355027       3.994E-06      0.77    <-- DIS
     199      10.79357030      10.79352464       4.230E-06      0.78    <-- DIS
     200      10.79354583      10.79349748       4.480E-06      0.78    <-- DIS
     201      10.79351992      10.79346871       4.745E-06      0.78    <-- DIS
     202      10.79349246      10.79343822       5.025E-06      0.79    <-- DIS
     203      10.79346337      10.79340592       5.322E-06      0.79    <-- DIS
     204      10.79343255      10.79337170       5.637E-06      0.79    <-- DIS
     205      10.79339990      10.79333545       5.971E-06      0.80    <-- DIS
     206      10.79336531      10.79329705       6.324E-06      0.80    <-- DIS
     207      10.79332866      10.79325637       6.698E-06      0.81    <-- DIS
     208      10.79328984      10.79321328       7.094E-06      0.81    <-- DIS
     209      10.79324872      10.79316763       7.513E-06      0.81    <-- DIS
     210      10.79320516      10.79311928       7.956E-06      0.82    <-- DIS
     211      10.79315902      10.79306807       8.426E-06      0.82    <-- DIS
     212      10.79311014      10.79301383       8.923E-06      0.82    <-- DIS
     213      10.79305838      10.79295639       9.449E-06      0.83    <-- DIS
     214      10.79300356      10.79289557       1.001E-05      0.83    <-- DIS
     215      10.79294550      10.79283116       1.059E-05      0.84    <-- DIS
     216      10.79288403      10.79276296       1.122E-05      0.84    <-- DIS
     217      10.79281893      10.79269075       1.188E-05      0.84    <-- DIS
     218      10.79275000      10.79261430       1.257E-05      0.85    <-- DIS
     219      10.79267703      10.79253338       1.331E-05      0.85    <-- DIS
     220      10.79259978      10.79244773       1.409E-05      0.86    <-- DIS
     221      10.79251800      10.79235708       1.491E-05      0.86    <-- DIS
     222      10.79243145      10.79226115       1.578E-05      0.86    <-- DIS
     223      10.79233985      10.79215964       1.670E-05      0.87    <-- DIS
     224      10.79224292      10.79205224       1.767E-05      0.87    <-- DIS
     225      10.79214036      10.79193863       1.869E-05      0.87    <-- DIS
     226      10.79203186      10.79181846       1.977E-05      0.88    <-- DIS
     227      10.79191708      10.79169138       2.091E-05      0.88    <-- DIS
     228      10.79179569      10.79155700       2.212E-05      0.89    <-- DIS
     229      10.79166731      10.79141494       2.339E-05      0.89    <-- DIS
     230      10.79153158      10.79126477       2.472E-05      0.89    <-- DIS
     231      10.79138809      10.79110606       2.614E-05      0.90    <-- DIS
     232      10.79123642      10.79093837       2.762E-05      0.90    <-- DIS
     233      10.79107614      10.79076121       2.919E-05      0.91    <-- DIS
     234      10.79090680      10.79057411       3.083E-05      0.91    <-- DIS
     235      10.79072793      10.79037653       3.257E-05      0.91    <-- DIS
     236      10.79053901      10.79016796       3.439E-05      0.92    <-- DIS
     237      10.79033955      10.78994783       3.630E-05      0.92    <-- DIS
     238      10.79012900      10.78971557       3.832E-05      0.92    <-- DIS
     239      10.78990681      10.78947059       4.043E-05      0.93    <-- DIS
     240      10.78967240      10.78921225       4.265E-05      0.93    <-- DIS
     241      10.78942517      10.78893993       4.498E-05      0.94    <-- DIS
     242      10.78916449      10.78865295       4.741E-05      0.94    <-- DIS
     243      10.78888974      10.78835065       4.997E-05      0.94    <-- DIS
     244      10.78860024      10.78803233       5.264E-05      0.95    <-- DIS
     245      10.78829532      10.78769726       5.544E-05      0.95    <-- DIS
     246      10.78797427      10.78734471       5.836E-05      0.95    <-- DIS
     247      10.78763639      10.78697394       6.141E-05      0.96    <-- DIS
     248      10.78728094      10.78658417       6.460E-05      0.96    <-- DIS
     249      10.78690717      10.78617464       6.791E-05      0.97    <-- DIS
     250      10.78651432      10.78574457       7.137E-05      0.97    <-- DIS
     251      10.78610163      10.78529315       7.496E-05      0.97    <-- DIS
     252      10.78566830      10.78481960       7.869E-05      0.98    <-- DIS
     253      10.78521356      10.78432312       8.257E-05      0.98    <-- DIS
     254      10.78473661      10.78380292       8.658E-05      0.98    <-- DIS
     255      10.78423667      10.78325821       9.074E-05      0.99    <-- DIS
     256      10.78371295      10.78268822       9.503E-05      0.99    <-- DIS
     257      10.78316469      10.78209219       9.947E-05      1.00    <-- DIS
     258      10.78259110      10.78146939       1.040E-04      1.00    <-- DIS
     259      10.78199146      10.78081911       1.087E-04      1.00    <-- DIS
     260      10.78136503      10.78014066       1.136E-04      1.01    <-- DIS
     261      10.78071113      10.77943342       1.185E-04      1.01    <-- DIS
     262      10.78002909      10.77869679       1.236E-04      1.01    <-- DIS
     263      10.77931829      10.77793024       1.288E-04      1.02    <-- DIS
     264      10.77857817      10.77713328       1.341E-04      1.02    <-- DIS
     265      10.77780819      10.77630550       1.394E-04      1.03    <-- DIS
     266      10.77700791      10.77544656       1.449E-04      1.03    <-- DIS
     267      10.77617693      10.77455621       1.504E-04      1.03    <-- DIS
     268      10.77531494      10.77363427       1.560E-04      1.04    <-- DIS
     269      10.77442170      10.77268067       1.616E-04      1.04    <-- DIS
     270      10.77349707      10.77169543       1.673E-04      1.04    <-- DIS
     271      10.77254099      10.77067868       1.729E-04      1.05    <-- DIS
     272      10.77155352      10.76963068       1.785E-04      1.05    <-- DIS
     273      10.77053481      10.76855179       1.841E-04      1.06    <-- DIS
     274      10.76948515      10.76744251       1.897E-04      1.06    <-- DIS
     275      10.76840491      10.76630343       1.952E-04      1.06    <-- DIS
     276      10.76729461      10.76513532       2.006E-04      1.07    <-- DIS
     277      10.76615490      10.76393905       2.059E-04      1.07    <-- DIS
     278      10.76498653      10.76271563       2.110E-04      1.07    <-- DIS
     279      10.76379040      10.76146619       2.160E-04      1.08    <-- DIS
     280      10.76256754      10.76019202       2.208E-04      1.08    <-- DIS
     281      10.76131910      10.75889449       2.254E-04      1.09    <-- DIS
     282      10.76004637      10.75757513       2.297E-04      1.09    <-- DIS
     283      10.75875073      10.75623556       2.338E-04      1.09    <-- DIS
     284      10.75743371      10.75487752       2.377E-04      1.10    <-- DIS
     285      10.75609694      10.75350285       2.412E-04      1.10    <-- DIS
     286      10.75474216      10.75211346       2.445E-04      1.11    <-- DIS
     287      10.75337118      10.75071137       2.474E-04      1.11    <-- DIS
     288      10.75198593      10.74929864       2.500E-04      1.11    <-- DIS
     289      10.75058838      10.74787738       2.522E-04      1.12    <-- DIS
     290      10.74918059      10.74644975       2.541E-04      1.12    <-- DIS
     291      10.74776465      10.74501794       2.556E-04      1.12    <-- DIS
     292      10.74634269      10.74358415       2.568E-04      1.13    <-- DIS
     293      10.74491687      10.74215056       2.575E-04      1.13    <-- DIS
     294      10.74348936      10.74071935       2.579E-04      1.14    <-- DIS
     295      10.74206231      10.73929266       2.579E-04      1.14    <-- DIS
     296      10.74063785      10.73787258       2.575E-04      1.14    <-- DIS
     297      10.73921808      10.73646115       2.568E-04      1.15    <-- DIS
     298      10.73780507      10.73506034       2.557E-04      1.15    <-- DIS
     299      10.73640082      10.73367202       2.542E-04      1.15    <-- DIS
     300      10.73500724      10.73229801       2.524E-04      1.16    <-- DIS
     301      10.73362618      10.73093997       2.503E-04      1.16    <-- DIS
     302      10.73225940      10.72959950       2.479E-04      1.17    <-- DIS
     303      10.73090854      10.72827807       2.452E-04      1.17    <-- DIS
     304      10.72957516      10.72697703       2.422E-04      1.17    <-- DIS
     305      10.72826069      10.72569759       2.390E-04      1.18    <-- DIS
     306      10.72696644      10.72444086       2.355E-04      1.18    <-- DIS
     307      10.72569362      10.72320782       2.318E-04      1.19    <-- DIS
     308      10.72444329      10.72199930       2.279E-04      1.19    <-- DIS
     309      10.72321640      10.72081605       2.239E-04      1.19    <-- DIS
     310      10.72201379      10.71965864       2.197E-04      1.20    <-- DIS
     311      10.72083615      10.71852758       2.154E-04      1.20    <-- DIS
     312      10.71968407      10.71742323       2.110E-04      1.20    <-- DIS
     313      10.71855803      10.71634584       2.064E-04      1.21    <-- DIS
     314      10.71745839      10.71529558       2.018E-04      1.21    <-- DIS
     315      10.71638539      10.71427250       1.972E-04      1.22    <-- DIS
     316      10.71533920      10.71327657       1.925E-04      1.22    <-- DIS
     317      10.71431987      10.71230769       1.878E-04      1.22    <-- DIS
     318      10.71332737      10.71136566       1.831E-04      1.23    <-- DIS
     319      10.71236160      10.71045022       1.785E-04      1.23    <-- DIS
     320      10.71142237      10.70956105       1.738E-04      1.23    <-- DIS
     321      10.71050943      10.70869778       1.692E-04      1.24    <-- DIS
     322      10.70962247      10.70785998       1.646E-04      1.24    <-- DIS
     323      10.70876113      10.70704719       1.601E-04      1.25    <-- DIS
     324      10.70792499      10.70625891       1.556E-04      1.25    <-- DIS
     325      10.70711360      10.70549461       1.512E-04      1.25    <-- DIS
     326      10.70632649      10.70475374       1.469E-04      1.26    <-- DIS
     327      10.70556313      10.70403574       1.427E-04      1.26    <-- DIS
     328      10.70482299      10.70334002       1.386E-04      1.26    <-- DIS
     329      10.70410551      10.70266599       1.345E-04      1.27    <-- DIS
     330      10.70341014      10.70201306       1.305E-04      1.27    <-- DIS
     331      10.70273629      10.70138063       1.267E-04      1.28    <-- DIS
     332      10.70208338      10.70076811       1.229E-04      1.28    <-- DIS
     333      10.70145084      10.70017492       1.192E-04      1.28    <-- DIS
     334      10.70083807      10.69960046       1.157E-04      1.29    <-- DIS
     335      10.70024452      10.69904418       1.122E-04      1.29    <-- DIS
     336      10.69966961      10.69850551       1.088E-04      1.30    <-- DIS
     337      10.69911278      10.69798390       1.055E-04      1.30    <-- DIS
     338      10.69857347      10.69747882       1.023E-04      1.30    <-- DIS
     339      10.69805115      10.69698974       9.923E-05      1.31    <-- DIS
     340      10.69754530      10.69651615       9.621E-05      1.31    <-- DIS
     341      10.69705540      10.69605757       9.329E-05      1.31    <-- DIS
     342      10.69658094      10.69561350       9.045E-05      1.32    <-- DIS
     343      10.69612144      10.69518349       8.770E-05      1.32    <-- DIS
     344      10.69567644      10.69476709       8.503E-05      1.33    <-- DIS
     345      10.69524545      10.69436385       8.244E-05      1.33    <-- DIS
     346      10.69482805      10.69397336       7.992E-05      1.33    <-- DIS
     347      10.69442380      10.69359520       7.749E-05      1.34    <-- DIS
     348      10.69403228      10.69322899       7.512E-05      1.34    <-- DIS
     349      10.69365309      10.69287432       7.283E-05      1.35    <-- DIS
     350      10.69328582      10.69253084       7.061E-05      1.35    <-- DIS
     351      10.69293011      10.69219819       6.845E-05      1.35    <-- DIS
     352      10.69258557      10.69187601       6.637E-05      1.36    <-- DIS
     353      10.69225186      10.69156396       6.434E-05      1.36    <-- DIS
     354      10.69192863      10.69126173       6.238E-05      1.36    <-- DIS
     355      10.69161553      10.69096898       6.048E-05      1.37    <-- DIS
     356      10.69131226      10.69068543       5.863E-05      1.37    <-- DIS
     357      10.69101848      10.69041076       5.685E-05      1.38    <-- DIS
     358      10.69073389      10.69014469       5.512E-05      1.38    <-- DIS
     359      10.69045820      10.68988695       5.344E-05      1.38    <-- DIS
     360      10.69019113      10.68963726       5.181E-05      1.39    <-- DIS
     361      10.68993239      10.68939535       5.024E-05      1.39    <-- DIS
     362      10.68968171      10.68916099       4.872E-05      1.39    <-- DIS
     363      10.68943884      10.68893391       4.724E-05      1.40    <-- DIS
     364      10.68920351      10.68871389       4.581E-05      1.40    <-- DIS
     365      10.68897550      10.68850069       4.442E-05      1.41    <-- DIS
     366      10.68875454      10.68829409       4.308E-05      1.41    <-- DIS
     367      10.68854043      10.68809388       4.178E-05      1.41    <-- DIS
     368      10.68833293      10.68789984       4.052E-05      1.42    <-- DIS
     369      10.68813183      10.68771176       3.930E-05      1.42    <-- DIS
     370      10.68793692      10.68752947       3.812E-05      1.43    <-- DIS
     371      10.68774800      10.68735276       3.698E-05      1.43    <-- DIS
     372      10.68756487      10.68718145       3.588E-05      1.43    <-- DIS
     373      10.68738734      10.68701537       3.481E-05      1.44    <-- DIS
     374      10.68721523      10.68685435       3.377E-05      1.44    <-- DIS
     375      10.68704836      10.68669821       3.277E-05      1.44    <-- DIS
     376      10.68688656      10.68654679       3.179E-05      1.45    <-- DIS
     377      10.68672967      10.68639995       3.085E-05      1.45    <-- DIS
     378      10.68657752      10.68625753       2.994E-05      1.46    <-- DIS
     379      10.68642995      10.68611938       2.906E-05      1.46    <-- DIS
     380      10.68628683      10.68598537       2.821E-05      1.46    <-- DIS
     381      10.68614799      10.68585536       2.738E-05      1.47    <-- DIS
     382      10.68601331      10.68572922       2.659E-05      1.47    <-- DIS
     383      10.68588264      10.68560683       2.581E-05      1.47    <-- DIS
     384      10.68575586      10.68548805       2.506E-05      1.48    <-- DIS
     385      10.68563283      10.68537277       2.434E-05      1.48    <-- DIS
     386      10.68551344      10.68526089       2.364E-05      1.49    <-- DIS
     387      10.68539757      10.68515227       2.296E-05      1.49    <-- DIS
     388      10.68528509      10.68504683       2.230E-05      1.49    <-- DIS
     389      10.68517591      10.68494446       2.166E-05      1.50    <-- DIS
     390      10.68506992      10.68484505       2.104E-05      1.50    <-- DIS
     391      10.68496700      10.68474852       2.045E-05      1.51    <-- DIS
     392      10.68486707      10.68465477       1.987E-05      1.51    <-- DIS
     393      10.68477002      10.68456370       1.931E-05      1.51    <-- DIS
     394      10.68467576      10.68447524       1.877E-05      1.52    <-- DIS
     395      10.68458420      10.68438929       1.824E-05      1.52    <-- DIS
     396      10.68449526      10.68430578       1.773E-05      1.52    <-- DIS
     397      10.68440885      10.68422463       1.724E-05      1.53    <-- DIS
     398      10.68432488      10.68414577       1.676E-05      1.53    <-- DIS
     399      10.68424329      10.68406911       1.630E-05      1.54    <-- DIS
     400      10.68416399      10.68399460       1.585E-05      1.54    <-- DIS
     401      10.68408692      10.68392216       1.542E-05      1.54    <-- DIS
     402      10.68401199      10.68385172       1.500E-05      1.55    <-- DIS
     403      10.68393915      10.68378323       1.459E-05      1.55    <-- DIS
     404      10.68386832      10.68371661       1.420E-05      1.55    <-- DIS
     405      10.68379944      10.68365182       1.382E-05      1.56    <-- DIS
     406      10.68373246      10.68358879       1.345E-05      1.56    <-- DIS
     407      10.68366730      10.68352747       1.309E-05      1.57    <-- DIS
     408      10.68360392      10.68346780       1.274E-05      1.57    <-- DIS
     409      10.68354225      10.68340974       1.240E-05      1.57    <-- DIS
     410      10.68348225      10.68335323       1.208E-05      1.58    <-- DIS
     411      10.68342385      10.68329822       1.176E-05      1.58    <-- DIS
     412      10.68336702      10.68324467       1.145E-05      1.59    <-- DIS
     413      10.68331170      10.68319252       1.116E-05      1.59    <-- DIS
     414      10.68325784      10.68314175       1.087E-05      1.59    <-- DIS
     415      10.68320540      10.68309230       1.059E-05      1.60    <-- DIS
     416      10.68315434      10.68304413       1.032E-05      1.60    <-- DIS
     417      10.68310460      10.68299721       1.005E-05      1.60    <-- DIS
     418      10.68305616      10.68295149       9.798E-06      1.61    <-- DIS
     419      10.68300897      10.68290695       9.550E-06      1.61    <-- DIS
     420      10.68296299      10.68286353       9.310E-06      1.62    <-- DIS
     421      10.68291818      10.68282121       9.077E-06      1.62    <-- DIS
     422      10.68287451      10.68277995       8.852E-06      1.62    <-- DIS
     423      10.68283194      10.68273972       8.633E-06      1.63    <-- DIS
     424      10.68279044      10.68270049       8.420E-06      1.63    <-- DIS
     425      10.68274998      10.68266223       8.214E-06      1.63    <-- DIS
     426      10.68271052      10.68262491       8.014E-06      1.64    <-- DIS
     427      10.68267203      10.68258850       7.820E-06      1.64    <-- DIS
     428      10.68263449      10.68255296       7.632E-06      1.65    <-- DIS
     429      10.68259786      10.68251829       7.449E-06      1.65    <-- DIS
     430      10.68256212      10.68248444       7.272E-06      1.65    <-- DIS
     431      10.68252724      10.68245140       7.100E-06      1.66    <-- DIS
     432      10.68249319      10.68241913       6.933E-06      1.66    <-- DIS
     433      10.68245995      10.68238762       6.771E-06      1.67    <-- DIS
     434      10.68242749      10.68235684       6.614E-06      1.67    <-- DIS
     435      10.68239579      10.68232677       6.461E-06      1.67    <-- DIS
     436      10.68236483      10.68229739       6.313E-06      1.68    <-- DIS
     437      10.68233458      10.68226868       6.169E-06      1.68    <-- DIS
     438      10.68230502      10.68224061       6.030E-06      1.68    <-- DIS
     439      10.68227613      10.68221317       5.894E-06      1.69    <-- DIS
     440      10.68224790      10.68218634       5.763E-06      1.69    <-- DIS
     441      10.68222029      10.68216009       5.635E-06      1.70    <-- DIS
     442      10.68219329      10.68213442       5.511E-06      1.70    <-- DIS
     443      10.68216689      10.68210930       5.391E-06      1.70    <-- DIS
     444      10.68214106      10.68208472       5.274E-06      1.71    <-- DIS
     445      10.68211579      10.68206066       5.161E-06      1.71    <-- DIS
     446      10.68209106      10.68203711       5.051E-06      1.71    <-- DIS
     447      10.68206685      10.68201404       4.944E-06      1.72    <-- DIS
     448      10.68204314      10.68199144       4.840E-06      1.72    <-- DIS
     449      10.68201993      10.68196931       4.739E-06      1.73    <-- DIS
     450      10.68199720      10.68194762       4.641E-06      1.73    <-- DIS
     451      10.68197493      10.68192636       4.546E-06      1.73    <-- DIS
     452      10.68195310      10.68190552       4.454E-06      1.74    <-- DIS
     453      10.68193171      10.68188509       4.365E-06      1.74    <-- DIS
     454      10.68191074      10.68186505       4.278E-06      1.74    <-- DIS
     455      10.68189018      10.68184539       4.193E-06      1.75    <-- DIS
     456      10.68187001      10.68182609       4.112E-06      1.75    <-- DIS
     457      10.68185022      10.68180715       4.032E-06      1.76    <-- DIS
     458      10.68183081      10.68178856       3.955E-06      1.76    <-- DIS
     459      10.68181175      10.68177031       3.880E-06      1.76    <-- DIS
     460      10.68179304      10.68175237       3.807E-06      1.77    <-- DIS
     461      10.68177467      10.68173475       3.737E-06      1.77    <-- DIS
     462      10.68175662      10.68171744       3.668E-06      1.77    <-- DIS
     463      10.68173889      10.68170041       3.602E-06      1.78    <-- DIS
     464      10.68172146      10.68168368       3.537E-06      1.78    <-- DIS
     465      10.68170433      10.68166721       3.474E-06      1.79    <-- DIS
     466      10.68168748      10.68165102       3.414E-06      1.79    <-- DIS
     467      10.68167091      10.68163507       3.355E-06      1.79    <-- DIS
     468      10.68165461      10.68161938       3.298E-06      1.80    <-- DIS
     469      10.68163856      10.68160393       3.242E-06      1.80    <-- DIS
     470      10.68162277      10.68158871       3.188E-06      1.80    <-- DIS
     471      10.68160721      10.68157372       3.136E-06      1.81    <-- DIS
     472      10.68159189      10.68155894       3.085E-06      1.81    <-- DIS
     473      10.68157680      10.68154437       3.036E-06      1.82    <-- DIS
     474      10.68156192      10.68153000       2.989E-06      1.82    <-- DIS
     475      10.68154725      10.68151582       2.943E-06      1.82    <-- DIS
     476      10.68153279      10.68150184       2.898E-06      1.83    <-- DIS
     477      10.68151852      10.68148803       2.855E-06      1.83    <-- DIS
     478      10.68150444      10.68147440       2.813E-06      1.83    <-- DIS
     479      10.68149054      10.68146093       2.772E-06      1.84    <-- DIS
     480      10.68147682      10.68144763       2.733E-06      1.84    <-- DIS
     481      10.68146326      10.68143448       2.694E-06      1.85    <-- DIS
     482      10.68144987      10.68142148       2.658E-06      1.85    <-- DIS
     483      10.68143663      10.68140862       2.622E-06      1.85    <-- DIS
     484      10.68142354      10.68139591       2.587E-06      1.86    <-- DIS
     485      10.68141060      10.68138332       2.554E-06      1.86    <-- DIS
     486      10.68139779      10.68137086       2.521E-06      1.86    <-- DIS
     487      10.68138512      10.68135852       2.490E-06      1.87    <-- DIS
     488      10.68137257      10.68134629       2.460E-06      1.87    <-- DIS
     489      10.68136014      10.68133418       2.431E-06      1.88    <-- DIS
     490      10.68134784      10.68132217       2.403E-06      1.88    <-- DIS
     491      10.68133564      10.68131026       2.376E-06      1.88    <-- DIS
     492      10.68132354      10.68129845       2.349E-06      1.89    <-- DIS
     493      10.68131155      10.68128673       2.324E-06      1.89    <-- DIS
     494      10.68129966      10.68127509       2.300E-06      1.89    <-- DIS
     495      10.68128785      10.68126354       2.276E-06      1.90    <-- DIS
     496      10.68127613      10.68125206       2.254E-06      1.90    <-- DIS
     497      10.68126449      10.68124065       2.232E-06      1.91    <-- DIS
     498      10.68125293      10.68122932       2.211E-06      1.91    <-- DIS
     499      10.68124145      10.68121804       2.191E-06      1.91    <-- DIS
     500      10.68123003      10.68120683       2.172E-06      1.92    <-- DIS
     501      10.68121867      10.68119567       2.153E-06      1.92    <-- DIS
     502      10.68120738      10.68118457       2.136E-06      1.92    <-- DIS
     503      10.68119614      10.68117351       2.119E-06      1.93    <-- DIS
     504      10.68118495      10.68116249       2.103E-06      1.93    <-- DIS
     505      10.68117381      10.68115152       2.087E-06      1.94    <-- DIS
     506      10.68116272      10.68114058       2.073E-06      1.94    <-- DIS
     507      10.68115166      10.68112967       2.059E-06      1.94    <-- DIS
     508      10.68114064      10.68111880       2.045E-06      1.95    <-- DIS
     509      10.68112966      10.68110794       2.033E-06      1.95    <-- DIS
     510      10.68111870      10.68109711       2.021E-06      1.96    <-- DIS
     511      10.68110776      10.68108630       2.010E-06      1.96    <-- DIS
     512      10.68109685      10.68107550       1.999E-06      1.96    <-- DIS
     513      10.68108595      10.68106471       1.989E-06      1.97    <-- DIS
     514      10.68107507      10.68105392       1.980E-06      1.97    <-- DIS
     515      10.68106420      10.68104314       1.971E-06      1.97    <-- DIS
     516      10.68105333      10.68103237       1.963E-06      1.98    <-- DIS
     517      10.68104247      10.68102158       1.955E-06      1.98    <-- DIS
     518      10.68103161      10.68101080       1.948E-06      1.99    <-- DIS
     519      10.68102074      10.68100000       1.942E-06      1.99    <-- DIS
     520      10.68100987      10.68098919       1.936E-06      1.99    <-- DIS
     521      10.68099898      10.68097836       1.931E-06      2.00    <-- DIS
     522      10.68098809      10.68096751       1.926E-06      2.00    <-- DIS
     523      10.68097718      10.68095665       1.922E-06      2.01    <-- DIS
     524      10.68096624      10.68094575       1.919E-06      2.01    <-- DIS
     525      10.68095529      10.68093483       1.916E-06      2.01    <-- DIS
     526      10.68094430      10.68092387       1.913E-06      2.02    <-- DIS
     527      10.68093329      10.68091288       1.911E-06      2.02    <-- DIS
     528      10.68092225      10.68090185       1.910E-06      2.02    <-- DIS
     529      10.68091117      10.68089077       1.909E-06      2.03    <-- DIS
     530      10.68090005      10.68087966       1.909E-06      2.03    <-- DIS
     531      10.68088888      10.68086849       1.909E-06      2.04    <-- DIS
     532      10.68087767      10.68085727       1.910E-06      2.04    <-- DIS
     533      10.68086642      10.68084600       1.911E-06      2.04    <-- DIS
     534      10.68085511      10.68083468       1.913E-06      2.05    <-- DIS
     535      10.68084374      10.68082329       1.915E-06      2.05    <-- DIS
     536      10.68083232      10.68081183       1.918E-06      2.05    <-- DIS
     537      10.68082083      10.68080031       1.921E-06      2.06    <-- DIS
     538      10.68080928      10.68078873       1.925E-06      2.06    <-- DIS
     539      10.68079767      10.68077706       1.929E-06      2.07    <-- DIS
     540      10.68078598      10.68076532       1.934E-06      2.07    <-- DIS
     541      10.68077422      10.68075351       1.939E-06      2.07    <-- DIS
     542      10.68076238      10.68074161       1.945E-06      2.08    <-- DIS
     543      10.68075046      10.68072962       1.951E-06      2.08    <-- DIS
     544      10.68073845      10.68071754       1.958E-06      2.09    <-- DIS
     545      10.68072636      10.68070538       1.965E-06      2.09    <-- DIS
     546      10.68071418      10.68069311       1.973E-06      2.09    <-- DIS
     547      10.68070191      10.68068075       1.981E-06      2.10    <-- DIS
     548      10.68068954      10.68066829       1.990E-06      2.10    <-- DIS
     549      10.68067707      10.68065572       1.999E-06      2.10    <-- DIS
     550      10.68066449      10.68064304       2.008E-06      2.11    <-- DIS
     551      10.68065181      10.68063025       2.019E-06      2.11    <-- DIS
     552      10.68063902      10.68061735       2.029E-06      2.12    <-- DIS
     553      10.68062612      10.68060432       2.040E-06      2.12    <-- DIS
     554      10.68061309      10.68059118       2.052E-06      2.12    <-- DIS
     555      10.68059995      10.68057791       2.064E-06      2.13    <-- DIS
     556      10.68058669      10.68056451       2.077E-06      2.13    <-- DIS
     557      10.68057330      10.68055097       2.090E-06      2.13    <-- DIS
     558      10.68055977      10.68053731       2.104E-06      2.14    <-- DIS
     559      10.68054612      10.68052350       2.118E-06      2.14    <-- DIS
     560      10.68053232      10.68050955       2.133E-06      2.15    <-- DIS
     561      10.68051839      10.68049545       2.148E-06      2.15    <-- DIS
     562      10.68050431      10.68048120       2.163E-06      2.15    <-- DIS
     563      10.68049008      10.68046680       2.180E-06      2.16    <-- DIS
     564      10.68047570      10.68045224       2.197E-06      2.16    <-- DIS
     565      10.68046116      10.68043751       2.214E-06      2.16    <-- DIS
     566      10.68044646      10.68042262       2.232E-06      2.17    <-- DIS
     567      10.68043160      10.68040757       2.250E-06      2.17    <-- DIS
     568      10.68041657      10.68039233       2.269E-06      2.18    <-- DIS
     569      10.68040137      10.68037692       2.288E-06      2.18    <-- DIS
     570      10.68038599      10.68036133       2.308E-06      2.18    <-- DIS
     571      10.68037043      10.68034556       2.329E-06      2.19    <-- DIS
     572      10.68035469      10.68032959       2.350E-06      2.19    <-- DIS
     573      10.68033876      10.68031343       2.372E-06      2.19    <-- DIS
     574      10.68032264      10.68029707       2.394E-06      2.20    <-- DIS
     575      10.68030632      10.68028051       2.417E-06      2.20    <-- DIS
     576      10.68028981      10.68026374       2.441E-06      2.21    <-- DIS
     577      10.68027308      10.68024676       2.465E-06      2.21    <-- DIS
     578      10.68025615      10.68022956       2.489E-06      2.21    <-- DIS
     579      10.68023900      10.68021215       2.515E-06      2.22    <-- DIS
     580      10.68022164      10.68019450       2.541E-06      2.22    <-- DIS
     581      10.68020405      10.68017663       2.567E-06      2.22    <-- DIS
     582      10.68018623      10.68015853       2.594E-06      2.23    <-- DIS
     583      10.68016818      10.68014018       2.622E-06      2.23    <-- DIS
     584      10.68014990      10.68012159       2.651E-06      2.24    <-- DIS
     585      10.68013137      10.68010275       2.680E-06      2.24    <-- DIS
     586      10.68011259      10.68008366       2.709E-06      2.24    <-- DIS
     587      10.68009357      10.68006430       2.740E-06      2.25    <-- DIS
     588      10.68007428      10.68004469       2.771E-06      2.25    <-- DIS
     589      10.68005473      10.68002480       2.803E-06      2.25    <-- DIS
     590      10.68003492      10.68000463       2.835E-06      2.26    <-- DIS
     591      10.68001483      10.67998419       2.869E-06      2.26    <-- DIS
     592      10.67999446      10.67996346       2.903E-06      2.27    <-- DIS
     593      10.67997381      10.67994244       2.937E-06      2.27    <-- DIS
     594      10.67995286      10.67992112       2.973E-06      2.27    <-- DIS
     595      10.67993163      10.67989949       3.009E-06      2.28    <-- DIS
     596      10.67991009      10.67987756       3.046E-06      2.28    <-- DIS
     597      10.67988824      10.67985531       3.084E-06      2.28    <-- DIS
     598      10.67986608      10.67983274       3.122E-06      2.29    <-- DIS
     599      10.67984361      10.67980984       3.161E-06      2.29    <-- DIS
     600      10.67982080      10.67978661       3.202E-06      2.30    <-- DIS
     601      10.67979767      10.67976304       3.243E-06      2.30    <-- DIS
     602      10.67977420      10.67973912       3.284E-06      2.30    <-- DIS
     603      10.67975038      10.67971485       3.327E-06      2.31    <-- DIS
     604      10.67972621      10.67969021       3.371E-06      2.31    <-- DIS
     605      10.67970168      10.67966521       3.415E-06      2.31    <-- DIS
     606      10.67967679      10.67963984       3.460E-06      2.32    <-- DIS
     607      10.67965153      10.67961408       3.507E-06      2.32    <-- DIS
     608      10.67962589      10.67958794       3.554E-06      2.33    <-- DIS
     609      10.67959987      10.67956140       3.602E-06      2.33    <-- DIS
     610      10.67957345      10.67953446       3.651E-06      2.33    <-- DIS
     611      10.67954663      10.67950711       3.701E-06      2.34    <-- DIS
     612      10.67951940      10.67947934       3.752E-06      2.34    <-- DIS
     613      10.67949176      10.67945114       3.804E-06      2.34    <-- DIS
     614      10.67946370      10.67942251       3.857E-06      2.35    <-- DIS
     615      10.67943520      10.67939344       3.911E-06      2.35    <-- DIS
     616      10.67940627      10.67936392       3.966E-06      2.36    <-- DIS
     617      10.67937689      10.67933394       4.022E-06      2.36    <-- DIS
     618      10.67934705      10.67930349       4.079E-06      2.36    <-- DIS
     619      10.67931675      10.67927256       4.137E-06      2.37    <-- DIS
     620      10.67928597      10.67924115       4.197E-06      2.37    <-- DIS
     621      10.67925472      10.67920925       4.257E-06      2.38    <-- DIS
     622      10.67922297      10.67917685       4.319E-06      2.38    <-- DIS
     623      10.67919073      10.67914393       4.382E-06      2.38    <-- DIS
     624      10.67915798      10.67911049       4.446E-06      2.39    <-- DIS
     625      10.67912470      10.67907652       4.512E-06      2.39    <-- DIS
     626      10.67909091      10.67904201       4.578E-06      2.39    <-- DIS
     627      10.67905657      10.67900695       4.646E-06      2.40    <-- DIS
     628      10.67902169      10.67897133       4.715E-06      2.40    <-- DIS
     629      10.67898625      10.67893514       4.786E-06      2.41    <-- DIS
     630      10.67895024      10.67889837       4.858E-06      2.41    <-- DIS
     631      10.67891366      10.67886100       4.931E-06      2.41    <-- DIS
     632      10.67887648      10.67882303       5.005E-06      2.42    <-- DIS
     633      10.67883871      10.67878445       5.081E-06      2.42    <-- DIS
     634      10.67880033      10.67874524       5.159E-06      2.42    <-- DIS
     635      10.67876133      10.67870540       5.237E-06      2.43    <-- DIS
     636      10.67872169      10.67866490       5.318E-06      2.43    <-- DIS
     637      10.67868141      10.67862375       5.399E-06      2.44    <-- DIS
     638      10.67864047      10.67858193       5.483E-06      2.44    <-- DIS
     639      10.67859887      10.67853942       5.568E-06      2.44    <-- DIS
     640      10.67855659      10.67849621       5.654E-06      2.45    <-- DIS
     641      10.67851361      10.67845229       5.742E-06      2.45    <-- DIS
     642      10.67846993      10.67840765       5.832E-06      2.46    <-- DIS
     643      10.67842553      10.67836228       5.923E-06      2.46    <-- DIS
     644      10.67838040      10.67831616       6.016E-06      2.46    <-- DIS
     645      10.67833453      10.67826927       6.111E-06      2.47    <-- DIS
     646      10.67828789      10.67822161       6.208E-06      2.47    <-- DIS
     647      10.67824049      10.67817315       6.306E-06      2.47    <-- DIS
     648      10.67819230      10.67812389       6.406E-06      2.48    <-- DIS
     649      10.67814331      10.67807381       6.508E-06      2.48    <-- DIS
     650      10.67809351      10.67802290       6.612E-06      2.49    <-- DIS
     651      10.67804288      10.67797114       6.718E-06      2.49    <-- DIS
     652      10.67799140      10.67791851       6.826E-06      2.49    <-- DIS
     653      10.67793906      10.67786500       6.936E-06      2.50    <-- DIS
     654      10.67788585      10.67781059       7.048E-06      2.50    <-- DIS
     655      10.67783174      10.67775527       7.162E-06      2.50    <-- DIS
     656      10.67777673      10.67769902       7.278E-06      2.51    <-- DIS
     657      10.67772080      10.67764182       7.396E-06      2.51    <-- DIS
     658      10.67766392      10.67758366       7.517E-06      2.52    <-- DIS
     659      10.67760609      10.67752452       7.639E-06      2.52    <-- DIS
     660      10.67754728      10.67746438       7.764E-06      2.52    <-- DIS
     661      10.67748748      10.67740322       7.891E-06      2.53    <-- DIS
     662      10.67742667      10.67734103       8.021E-06      2.53    <-- DIS
     663      10.67736483      10.67727778       8.153E-06      2.54    <-- DIS
     664      10.67730194      10.67721345       8.287E-06      2.54    <-- DIS
     665      10.67723798      10.67714804       8.424E-06      2.54    <-- DIS
     666      10.67717294      10.67708151       8.563E-06      2.55    <-- DIS
     667      10.67710679      10.67701384       8.705E-06      2.55    <-- DIS
     668      10.67703951      10.67694503       8.850E-06      2.55    <-- DIS
     669      10.67697109      10.67687503       8.997E-06      2.56    <-- DIS
     670      10.67690150      10.67680385       9.147E-06      2.56    <-- DIS
     671      10.67683073      10.67673144       9.300E-06      2.57    <-- DIS
     672      10.67675874      10.67665779       9.455E-06      2.57    <-- DIS
     673      10.67668552      10.67658288       9.613E-06      2.57    <-- DIS
     674      10.67661105      10.67650669       9.775E-06      2.58    <-- DIS
     675      10.67653530      10.67642919       9.939E-06      2.58    <-- DIS
     676      10.67645825      10.67635035       1.011E-05      2.58    <-- DIS
     677      10.67637988      10.67627016       1.028E-05      2.59    <-- DIS
     678      10.67630015      10.67618859       1.045E-05      2.59    <-- DIS
     679      10.67621906      10.67610561       1.063E-05      2.60    <-- DIS
     680      10.67613657      10.67602119       1.081E-05      2.60    <-- DIS
     681      10.67605265      10.67593532       1.099E-05      2.60    <-- DIS
     682      10.67596729      10.67584797       1.118E-05      2.61    <-- DIS
     683      10.67588046      10.67575910       1.137E-05      2.61    <-- DIS
     684      10.67579212      10.67566870       1.156E-05      2.61    <-- DIS
     685      10.67570225      10.67557673       1.176E-05      2.62    <-- DIS
     686      10.67561083      10.67548316       1.196E-05      2.62    <-- DIS
     687      10.67551782      10.67538797       1.216E-05      2.63    <-- DIS
     688      10.67542320      10.67529113       1.237E-05      2.63    <-- DIS
     689      10.67532693      10.67519260       1.258E-05      2.63    <-- DIS
     690      10.67522899      10.67509236       1.280E-05      2.64    <-- DIS
     691      10.67512935      10.67499037       1.302E-05      2.64    <-- DIS
     692      10.67502798      10.67488660       1.324E-05      2.64    <-- DIS
     693      10.67492484      10.67478103       1.347E-05      2.65    <-- DIS
     694      10.67481990      10.67467361       1.370E-05      2.65    <-- DIS
     695      10.67471313      10.67456432       1.394E-05      2.66    <-- DIS
     696      10.67460450      10.67445311       1.418E-05      2.66    <-- DIS
     697      10.67449397      10.67433996       1.443E-05      2.66    <-- DIS
     698      10.67438151      10.67422483       1.468E-05      2.67    <-- DIS
     699      10.67426708      10.67410769       1.493E-05      2.67    <-- DIS
     700      10.67415065      10.67398849       1.519E-05      2.67    <-- DIS
     701      10.67403218      10.67386720       1.546E-05      2.68    <-- DIS
     702      10.67391163      10.67374378       1.573E-05      2.68    <-- DIS
     703      10.67378897      10.67361820       1.600E-05      2.69    <-- DIS
     704      10.67366415      10.67349040       1.628E-05      2.69    <-- DIS
     705      10.67353715      10.67336036       1.656E-05      2.69    <-- DIS
     706      10.67340791      10.67322804       1.685E-05      2.70    <-- DIS
     707      10.67327640      10.67309338       1.715E-05      2.70    <-- DIS
     708      10.67314257      10.67295635       1.745E-05      2.70    <-- DIS
     709      10.67300639      10.67281690       1.775E-05      2.71    <-- DIS
     710      10.67286781      10.67267500       1.807E-05      2.71    <-- DIS
     711      10.67272679      10.67253059       1.838E-05      2.72    <-- DIS
     712      10.67258328      10.67238363       1.871E-05      2.72    <-- DIS
     713      10.67243723      10.67223407       1.904E-05      2.72    <-- DIS
     714      10.67228861      10.67208187       1.937E-05      2.73    <-- DIS
     715      10.67213736      10.67192698       1.971E-05      2.73    <-- DIS
     716      10.67198344      10.67176935       2.006E-05      2.74    <-- DIS
     717      10.67182680      10.67160892       2.042E-05      2.74    <-- DIS
     718      10.67166738      10.67144565       2.078E-05      2.74    <-- DIS
     719      10.67150514      10.67127949       2.115E-05      2.75    <-- DIS
     720      10.67134002      10.67111037       2.152E-05      2.75    <-- DIS
     721      10.67117198      10.67093826       2.190E-05      2.75    <-- DIS
     722      10.67100096      10.67076309       2.229E-05      2.76    <-- DIS
     723      10.67082690      10.67058481       2.269E-05      2.76    <-- DIS
     724      10.67064975      10.67040335       2.309E-05      2.77    <-- DIS
     725      10.67046945      10.67021867       2.350E-05      2.77    <-- DIS
     726      10.67028595      10.67003071       2.392E-05      2.77    <-- DIS
     727      10.67009919      10.66983939       2.435E-05      2.78    <-- DIS
     728      10.66990910      10.66964467       2.478E-05      2.78    <-- DIS
     729      10.66971563      10.66944648       2.523E-05      2.78    <-- DIS
     730      10.66951871      10.66924475       2.568E-05      2.79    <-- DIS
     731      10.66931828      10.66903943       2.614E-05      2.79    <-- DIS
     732      10.66911428      10.66883044       2.660E-05      2.80    <-- DIS
     733      10.66890664      10.66861771       2.708E-05      2.80    <-- DIS
     734      10.66869529      10.66840119       2.757E-05      2.80    <-- DIS
     735      10.66848017      10.66818079       2.806E-05      2.81    <-- DIS
     736      10.66826121      10.66795645       2.857E-05      2.81    <-- DIS
     737      10.66803834      10.66772810       2.908E-05      2.82    <-- DIS
     738      10.66781148      10.66749566       2.961E-05      2.82    <-- DIS
     739      10.66758056      10.66725905       3.014E-05      2.82    <-- DIS
     740      10.66734550      10.66701821       3.068E-05      2.83    <-- DIS
     741      10.66710624      10.66677304       3.124E-05      2.83    <-- DIS
     742      10.66686270      10.66652348       3.180E-05      2.83    <-- DIS
     743      10.66661478      10.66626944       3.238E-05      2.84    <-- DIS
     744      10.66636242      10.66601084       3.296E-05      2.84    <-- DIS
     745      10.66610554      10.66574760       3.356E-05      2.85    <-- DIS
     746      10.66584404      10.66547962       3.417E-05      2.85    <-- DIS
     747      10.66557785      10.66520682       3.479E-05      2.85    <-- DIS
     748      10.66530688      10.66492912       3.542E-05      2.86    <-- DIS
     749      10.66503104      10.66464642       3.606E-05      2.86    <-- DIS
     750      10.66475024      10.66435863       3.672E-05      2.86    <-- DIS
     751      10.66446438      10.66406566       3.739E-05      2.87    <-- DIS
     752      10.66417339      10.66376740       3.807E-05      2.87    <-- DIS
     753      10.66387715      10.66346377       3.877E-05      2.88    <-- DIS
     754      10.66357558      10.66315466       3.947E-05      2.88    <-- DIS
     755      10.66326857      10.66283998       4.020E-05      2.88    <-- DIS
     756      10.66295603      10.66251961       4.093E-05      2.89    <-- DIS
     757      10.66263786      10.66219346       4.168E-05      2.89    <-- DIS
     758      10.66231394      10.66186141       4.244E-05      2.89    <-- DIS
     759      10.66198417      10.66152336       4.322E-05      2.90    <-- DIS
     760      10.66164845      10.66117919       4.402E-05      2.90    <-- DIS
     761      10.66130667      10.66082880       4.482E-05      2.91    <-- DIS
     762      10.66095871      10.66047206       4.565E-05      2.91    <-- DIS
[...]
  WF centre and spread    5  ( -0.002087, -1.435413,  0.479468 )     1.14112272
  WF centre and spread    6  ( -0.001066, -0.761482, -1.210896 )     1.11318144
  WF centre and spread    7  (  0.000330, -0.000261,  0.000357 )     0.40981500
  WF centre and spread    8  (  0.000085, -0.019916, -0.010210 )     0.44675731
  WF centre and spread    9  ( -0.000258, -0.000766,  0.000475 )     0.48652513
  WF centre and spread   10  (  0.000068, -0.000720, -0.001011 )     0.44072500
  WF centre and spread   11  (  0.000082,  0.020905,  0.010305 )     0.45362486
  WF centre and spread   12  (  0.000045,  0.019902, -0.010005 )     0.44649464
  WF centre and spread   13  ( -0.000815,  0.000310, -0.000450 )     0.44007592
  WF centre and spread   14  (  0.000117, -0.020922,  0.010472 )     0.45389010
  WF centre and spread   15  ( -0.000259,  0.000986,  0.001254 )     0.48648657
  WF centre and spread   16  (  0.000055,  0.000493, -0.000470 )     0.44062994
  Sum of centres and spreads ( -0.009014, -0.000204,  0.006043 )    11.24286425

   2074    -0.341E-09     0.0000140082       11.2428642548      41.50  <-- CONV
        O_D=      0.0552123 O_OD=      0.9680164 O_TOT=     11.2428643 <-- SPRD
 Delta: O_D=  0.9643694E-08 O_OD= -0.9984305E-08 O_TOT= -0.3406111E-09 <-- DLTA
 ------------------------------------------------------------------------------
 Cycle:   2075
  WF centre and spread    1  ( -0.001228,  0.761822, -1.210364 )     1.11314235
  WF centre and spread    2  ( -0.001132,  0.761154,  1.211400 )     1.11389192
  WF centre and spread    3  (  1.434030,  0.674119, -0.223103 )     1.11392786
  WF centre and spread    4  ( -1.436981, -0.000415,  0.958820 )     1.14257310
  WF centre and spread    5  ( -0.002087, -1.435413,  0.479468 )     1.14112279
  WF centre and spread    6  ( -0.001066, -0.761482, -1.210896 )     1.11318170
  WF centre and spread    7  (  0.000330, -0.000261,  0.000357 )     0.40981489
  WF centre and spread    8  (  0.000085, -0.019916, -0.010210 )     0.44675728
  WF centre and spread    9  ( -0.000258, -0.000766,  0.000475 )     0.48652503
  WF centre and spread   10  (  0.000068, -0.000720, -0.001011 )     0.44072503
  WF centre and spread   11  (  0.000082,  0.020905,  0.010305 )     0.45362453
  WF centre and spread   12  (  0.000045,  0.019902, -0.010005 )     0.44649458
  WF centre and spread   13  ( -0.000815,  0.000310, -0.000450 )     0.44007607
  WF centre and spread   14  (  0.000117, -0.020922,  0.010472 )     0.45389054
  WF centre and spread   15  ( -0.000259,  0.000986,  0.001254 )     0.48648666
  WF centre and spread   16  (  0.000055,  0.000493, -0.000470 )     0.44062995
  Sum of centres and spreads ( -0.009014, -0.000204,  0.006043 )    11.24286425

   2075    -0.254E-09     0.0000131749       11.2428642545      41.51  <-- CONV
        O_D=      0.0552124 O_OD=      0.9680164 O_TOT=     11.2428643 <-- SPRD
 Delta: O_D=  0.6480118E-08 O_OD= -0.6734437E-08 O_TOT= -0.2543192E-09 <-- DLTA
 ------------------------------------------------------------------------------
 Cycle:   2076
  WF centre and spread    1  ( -0.001228,  0.761822, -1.210364 )     1.11314192
  WF centre and spread    2  ( -0.001132,  0.761154,  1.211401 )     1.11389203
  WF centre and spread    3  (  1.434030,  0.674119, -0.223104 )     1.11392778
  WF centre and spread    4  ( -1.436981, -0.000414,  0.958820 )     1.14257311
  WF centre and spread    5  ( -0.002087, -1.435413,  0.479468 )     1.14112291
  WF centre and spread    6  ( -0.001066, -0.761482, -1.210896 )     1.11318193
  WF centre and spread    7  (  0.000330, -0.000261,  0.000357 )     0.40981483
  WF centre and spread    8  (  0.000085, -0.019916, -0.010210 )     0.44675720
  WF centre and spread    9  ( -0.000258, -0.000766,  0.000475 )     0.48652495
  WF centre and spread   10  (  0.000067, -0.000720, -0.001011 )     0.44072505
  WF centre and spread   11  (  0.000082,  0.020905,  0.010305 )     0.45362429
  WF centre and spread   12  (  0.000045,  0.019902, -0.010005 )     0.44649449
  WF centre and spread   13  ( -0.000815,  0.000310, -0.000450 )     0.44007619
  WF centre and spread   14  (  0.000117, -0.020922,  0.010472 )     0.45389088
  WF centre and spread   15  ( -0.000259,  0.000986,  0.001254 )     0.48648673
  WF centre and spread   16  (  0.000055,  0.000493, -0.000470 )     0.44062996
  Sum of centres and spreads ( -0.009014, -0.000204,  0.006043 )    11.24286425

   2076    -0.194E-09     0.0000117878       11.2428642544      41.52  <-- CONV
        O_D=      0.0552124 O_OD=      0.9680163 O_TOT=     11.2428643 <-- SPRD
 Delta: O_D=  0.4595178E-08 O_OD= -0.4789529E-08 O_TOT= -0.1943530E-09 <-- DLTA
 ------------------------------------------------------------------------------
 Cycle:   2077
  WF centre and spread    1  ( -0.001228,  0.761822, -1.210364 )     1.11314145
  WF centre and spread    2  ( -0.001132,  0.761154,  1.211401 )     1.11389209
  WF centre and spread    3  (  1.434030,  0.674118, -0.223104 )     1.11392764
  WF centre and spread    4  ( -1.436981, -0.000413,  0.958820 )     1.14257330
  WF centre and spread    5  ( -0.002087, -1.435412,  0.479468 )     1.14112305
  WF centre and spread    6  ( -0.001066, -0.761483, -1.210896 )     1.11318216
  WF centre and spread    7  (  0.000330, -0.000261,  0.000357 )     0.40981481
  WF centre and spread    8  (  0.000085, -0.019916, -0.010210 )     0.44675709
  WF centre and spread    9  ( -0.000258, -0.000766,  0.000475 )     0.48652488
  WF centre and spread   10  (  0.000067, -0.000720, -0.001011 )     0.44072507
  WF centre and spread   11  (  0.000082,  0.020905,  0.010305 )     0.45362412
  WF centre and spread   12  (  0.000045,  0.019902, -0.010005 )     0.44649438
  WF centre and spread   13  ( -0.000815,  0.000310, -0.000449 )     0.44007629
  WF centre and spread   14  (  0.000117, -0.020922,  0.010472 )     0.45389116
  WF centre and spread   15  ( -0.000259,  0.000986,  0.001254 )     0.48648679
  WF centre and spread   16  (  0.000055,  0.000493, -0.000470 )     0.44062996
  Sum of centres and spreads ( -0.009014, -0.000204,  0.006043 )    11.24286425

   2077    -0.172E-09     0.0000105394       11.2428642542      41.53  <-- CONV
        O_D=      0.0552124 O_OD=      0.9680163 O_TOT=     11.2428643 <-- SPRD
 Delta: O_D=  0.5582393E-08 O_OD= -0.5753919E-08 O_TOT= -0.1715268E-09 <-- DLTA
 ------------------------------------------------------------------------------
 Cycle:   2078
  WF centre and spread    1  ( -0.001227,  0.761822, -1.210364 )     1.11314106
  WF centre and spread    2  ( -0.001132,  0.761153,  1.211402 )     1.11389209
  WF centre and spread    3  (  1.434030,  0.674118, -0.223105 )     1.11392751
  WF centre and spread    4  ( -1.436981, -0.000413,  0.958820 )     1.14257355
  WF centre and spread    5  ( -0.002088, -1.435412,  0.479468 )     1.14112318
  WF centre and spread    6  ( -0.001066, -0.761483, -1.210896 )     1.11318234
  WF centre and spread    7  (  0.000330, -0.000261,  0.000357 )     0.40981481
  WF centre and spread    8  (  0.000085, -0.019916, -0.010210 )     0.44675698
  WF centre and spread    9  ( -0.000258, -0.000766,  0.000475 )     0.48652483
  WF centre and spread   10  (  0.000067, -0.000720, -0.001011 )     0.44072507
  WF centre and spread   11  (  0.000082,  0.020905,  0.010305 )     0.45362403
  WF centre and spread   12  (  0.000045,  0.019902, -0.010005 )     0.44649428
  WF centre and spread   13  ( -0.000815,  0.000310, -0.000449 )     0.44007637
  WF centre and spread   14  (  0.000117, -0.020922,  0.010472 )     0.45389137
  WF centre and spread   15  ( -0.000259,  0.000986,  0.001254 )     0.48648683
  WF centre and spread   16  (  0.000055,  0.000493, -0.000470 )     0.44062995
  Sum of centres and spreads ( -0.009014, -0.000204,  0.006043 )    11.24286425

   2078    -0.136E-09     0.0000094338       11.2428642540      41.54  <-- CONV
        O_D=      0.0552124 O_OD=      0.9680163 O_TOT=     11.2428643 <-- SPRD
 Delta: O_D=  0.6278043E-08 O_OD= -0.6414360E-08 O_TOT= -0.1363176E-09 <-- DLTA
 ------------------------------------------------------------------------------
 Cycle:   2079
  WF centre and spread    1  ( -0.001227,  0.761822, -1.210363 )     1.11314073
  WF centre and spread    2  ( -0.001132,  0.761153,  1.211402 )     1.11389205
  WF centre and spread    3  (  1.434030,  0.674118, -0.223105 )     1.11392738
  WF centre and spread    4  ( -1.436981, -0.000412,  0.958820 )     1.14257384
  WF centre and spread    5  ( -0.002088, -1.435412,  0.479468 )     1.14112328
  WF centre and spread    6  ( -0.001066, -0.761483, -1.210896 )     1.11318249
  WF centre and spread    7  (  0.000330, -0.000261,  0.000357 )     0.40981482
  WF centre and spread    8  (  0.000085, -0.019916, -0.010210 )     0.44675688
  WF centre and spread    9  ( -0.000258, -0.000766,  0.000475 )     0.48652480
  WF centre and spread   10  (  0.000067, -0.000720, -0.001011 )     0.44072508
  WF centre and spread   11  (  0.000082,  0.020905,  0.010305 )     0.45362397
  WF centre and spread   12  (  0.000045,  0.019902, -0.010005 )     0.44649419
  WF centre and spread   13  ( -0.000815,  0.000310, -0.000449 )     0.44007642
  WF centre and spread   14  (  0.000117, -0.020922,  0.010472 )     0.45389153
  WF centre and spread   15  ( -0.000259,  0.000986,  0.001254 )     0.48648686
  WF centre and spread   16  (  0.000055,  0.000493, -0.000470 )     0.44062993
  Sum of centres and spreads ( -0.009014, -0.000203,  0.006043 )    11.24286425

   2079    -0.109E-09     0.0000078643       11.2428642539      41.54  <-- CONV
        O_D=      0.0552124 O_OD=      0.9680163 O_TOT=     11.2428643 <-- SPRD
 Delta: O_D=  0.6243600E-08 O_OD= -0.6352681E-08 O_TOT= -0.1090807E-09 <-- DLTA
 ------------------------------------------------------------------------------
 Cycle:   2080
  WF centre and spread    1  ( -0.001227,  0.761822, -1.210363 )     1.11314039
  WF centre and spread    2  ( -0.001132,  0.761153,  1.211402 )     1.11389194
  WF centre and spread    3  (  1.434030,  0.674118, -0.223105 )     1.11392723
  WF centre and spread    4  ( -1.436981, -0.000412,  0.958820 )     1.14257424
  WF centre and spread    5  ( -0.002088, -1.435412,  0.479468 )     1.14112337
  WF centre and spread    6  ( -0.001066, -0.761483, -1.210896 )     1.11318267
  WF centre and spread    7  (  0.000330, -0.000261,  0.000357 )     0.40981483
  WF centre and spread    8  (  0.000085, -0.019916, -0.010210 )     0.44675676
  WF centre and spread    9  ( -0.000258, -0.000766,  0.000475 )     0.48652477
  WF centre and spread   10  (  0.000067, -0.000720, -0.001011 )     0.44072507
  WF centre and spread   11  (  0.000082,  0.020905,  0.010305 )     0.45362393
  WF centre and spread   12  (  0.000045,  0.019902, -0.010005 )     0.44649409
  WF centre and spread   13  ( -0.000815,  0.000310, -0.000449 )     0.44007648
  WF centre and spread   14  (  0.000117, -0.020922,  0.010472 )     0.45389169
  WF centre and spread   15  ( -0.000259,  0.000986,  0.001254 )     0.48648689
  WF centre and spread   16  (  0.000055,  0.000493, -0.000470 )     0.44062990
  Sum of centres and spreads ( -0.009014, -0.000203,  0.006043 )    11.24286425

   2080    -0.100E-09     0.0000068884       11.2428642538      41.55  <-- CONV
        O_D=      0.0552124 O_OD=      0.9680163 O_TOT=     11.2428643 <-- SPRD
 Delta: O_D=  0.6674823E-08 O_OD= -0.6774956E-08 O_TOT= -0.1001332E-09 <-- DLTA
 ------------------------------------------------------------------------------
 Cycle:   2081
  WF centre and spread    1  ( -0.001227,  0.761822, -1.210363 )     1.11314011
  WF centre and spread    2  ( -0.001132,  0.761153,  1.211402 )     1.11389181
  WF centre and spread    3  (  1.434030,  0.674118, -0.223106 )     1.11392709
  WF centre and spread    4  ( -1.436981, -0.000412,  0.958820 )     1.14257464
  WF centre and spread    5  ( -0.002088, -1.435412,  0.479468 )     1.14112344
  WF centre and spread    6  ( -0.001066, -0.761483, -1.210896 )     1.11318283
  WF centre and spread    7  (  0.000330, -0.000261,  0.000357 )     0.40981484
  WF centre and spread    8  (  0.000085, -0.019916, -0.010210 )     0.44675665
  WF centre and spread    9  ( -0.000258, -0.000766,  0.000475 )     0.48652474
  WF centre and spread   10  (  0.000067, -0.000720, -0.001011 )     0.44072507
  WF centre and spread   11  (  0.000082,  0.020905,  0.010305 )     0.45362389
  WF centre and spread   12  (  0.000045,  0.019902, -0.010005 )     0.44649400
  WF centre and spread   13  ( -0.000815,  0.000310, -0.000449 )     0.44007653
  WF centre and spread   14  (  0.000117, -0.020922,  0.010472 )     0.45389182
  WF centre and spread   15  ( -0.000259,  0.000986,  0.001254 )     0.48648691
  WF centre and spread   16  (  0.000055,  0.000493, -0.000470 )     0.44062988
  Sum of centres and spreads ( -0.009014, -0.000203,  0.006043 )    11.24286425

   2081    -0.761E-10     0.0000069849       11.2428642538      41.56  <-- CONV
        O_D=      0.0552124 O_OD=      0.9680163 O_TOT=     11.2428643 <-- SPRD
 Delta: O_D=  0.3847509E-08 O_OD= -0.3923612E-08 O_TOT= -0.7610268E-10 <-- DLTA
 ------------------------------------------------------------------------------
 Cycle:   2082
  WF centre and spread    1  ( -0.001227,  0.761822, -1.210363 )     1.11313994
  WF centre and spread    2  ( -0.001132,  0.761153,  1.211403 )     1.11389169
  WF centre and spread    3  (  1.434030,  0.674118, -0.223106 )     1.11392698
  WF centre and spread    4  ( -1.436981, -0.000412,  0.958820 )     1.14257497
  WF centre and spread    5  ( -0.002088, -1.435412,  0.479468 )     1.14112347
  WF centre and spread    6  ( -0.001066, -0.761483, -1.210896 )     1.11318295
  WF centre and spread    7  (  0.000330, -0.000261,  0.000357 )     0.40981483
  WF centre and spread    8  (  0.000085, -0.019916, -0.010210 )     0.44675657
  WF centre and spread    9  ( -0.000258, -0.000766,  0.000475 )     0.48652473
  WF centre and spread   10  (  0.000067, -0.000720, -0.001011 )     0.44072506
  WF centre and spread   11  (  0.000082,  0.020905,  0.010305 )     0.45362387
  WF centre and spread   12  (  0.000045,  0.019902, -0.010005 )     0.44649393
  WF centre and spread   13  ( -0.000815,  0.000310, -0.000449 )     0.44007656
  WF centre and spread   14  (  0.000117, -0.020922,  0.010472 )     0.45389192
  WF centre and spread   15  ( -0.000259,  0.000986,  0.001254 )     0.48648693
  WF centre and spread   16  (  0.000055,  0.000493, -0.000470 )     0.44062985
  Sum of centres and spreads ( -0.009014, -0.000203,  0.006043 )    11.24286425

   2082    -0.700E-10     0.0000067060       11.2428642537      41.56  <-- CONV
        O_D=      0.0552124 O_OD=      0.9680163 O_TOT=     11.2428643 <-- SPRD
 Delta: O_D=  0.6498951E-09 O_OD= -0.7199235E-09 O_TOT= -0.7002754E-10 <-- DLTA
 ------------------------------------------------------------------------------
 Cycle:   2083
  WF centre and spread    1  ( -0.001227,  0.761822, -1.210363 )     1.11313978
  WF centre and spread    2  ( -0.001132,  0.761153,  1.211403 )     1.11389149
  WF centre and spread    3  (  1.434030,  0.674118, -0.223106 )     1.11392684
  WF centre and spread    4  ( -1.436981, -0.000412,  0.958820 )     1.14257541
  WF centre and spread    5  ( -0.002088, -1.435412,  0.479468 )     1.14112348
  WF centre and spread    6  ( -0.001066, -0.761483, -1.210896 )     1.11318311
  WF centre and spread    7  (  0.000330, -0.000261,  0.000357 )     0.40981481
  WF centre and spread    8  (  0.000085, -0.019916, -0.010210 )     0.44675647
  WF centre and spread    9  ( -0.000258, -0.000766,  0.000475 )     0.48652472
  WF centre and spread   10  (  0.000067, -0.000720, -0.001011 )     0.44072505
  WF centre and spread   11  (  0.000082,  0.020905,  0.010305 )     0.45362382
  WF centre and spread   12  (  0.000045,  0.019902, -0.010005 )     0.44649383
  WF centre and spread   13  ( -0.000815,  0.000310, -0.000449 )     0.44007660
  WF centre and spread   14  (  0.000117, -0.020922,  0.010472 )     0.45389206
  WF centre and spread   15  ( -0.000259,  0.000986,  0.001254 )     0.48648695
  WF centre and spread   16  (  0.000055,  0.000493, -0.000470 )     0.44062982
  Sum of centres and spreads ( -0.009014, -0.000203,  0.006043 )    11.24286425

   2083    -0.735E-10     0.0000062741       11.2428642536      41.57  <-- CONV
        O_D=      0.0552124 O_OD=      0.9680163 O_TOT=     11.2428643 <-- SPRD
 Delta: O_D= -0.3028360E-08 O_OD=  0.2954854E-08 O_TOT= -0.7350565E-10 <-- DLTA
 ------------------------------------------------------------------------------

             <<<     Delta < 1.000E-10  over  3 iterations     >>>
             <<< Wannierisation convergence criteria satisfied >>>

 Final State
  WF centre and spread    1  ( -0.001227,  0.761822, -1.210363 )     1.11313978
  WF centre and spread    2  ( -0.001132,  0.761153,  1.211403 )     1.11389149
  WF centre and spread    3  (  1.434030,  0.674118, -0.223106 )     1.11392684
  WF centre and spread    4  ( -1.436981, -0.000412,  0.958820 )     1.14257541
  WF centre and spread    5  ( -0.002088, -1.435412,  0.479468 )     1.14112348
  WF centre and spread    6  ( -0.001066, -0.761483, -1.210896 )     1.11318311
  WF centre and spread    7  (  0.000330, -0.000261,  0.000357 )     0.40981481
  WF centre and spread    8  (  0.000085, -0.019916, -0.010210 )     0.44675647
  WF centre and spread    9  ( -0.000258, -0.000766,  0.000475 )     0.48652472
  WF centre and spread   10  (  0.000067, -0.000720, -0.001011 )     0.44072505
  WF centre and spread   11  (  0.000082,  0.020905,  0.010305 )     0.45362382
  WF centre and spread   12  (  0.000045,  0.019902, -0.010005 )     0.44649383
  WF centre and spread   13  ( -0.000815,  0.000310, -0.000449 )     0.44007660
  WF centre and spread   14  (  0.000117, -0.020922,  0.010472 )     0.45389206
  WF centre and spread   15  ( -0.000259,  0.000986,  0.001254 )     0.48648695
  WF centre and spread   16  (  0.000055,  0.000493, -0.000470 )     0.44062982
  Sum of centres and spreads ( -0.009014, -0.000203,  0.006043 )    11.24286425

         Spreads (Ang^2)       Omega I      =    10.219635550
        ================       Omega D      =     0.055212384
                               Omega OD     =     0.968016319
    Final Spread (Ang^2)       Omega Total  =    11.242864254
 ------------------------------------------------------------------------------
 Time for wannierise           15.254 (sec)

 Writing checkpoint file Fe.chk... done

 *---------------------------------------------------------------------------*
 |                               PLOTTING                                    |
 *---------------------------------------------------------------------------*


 Calculating interpolated band-structure

 Time to calculate interpolated band structure       0.934 (sec)

 Time for plotting              5.984 (sec)
 Total Execution Time          48.451 (sec)

 *===========================================================================*
 |                             TIMING INFORMATION                            |
 *===========================================================================*
 |    Tag                                                Ncalls      Time (s)|
 |---------------------------------------------------------------------------|
 |kmesh: get                                        :         1         0.092|
 |overlap: allocate                                 :         1         0.000|
 |overlap: read                                     :         1         0.690|
 |dis: main                                         :         1        26.382|
 |wann: main                                        :         1        15.254|
 |plot: main                                        :         1         5.984|
 *---------------------------------------------------------------------------*

 All done: wannier90 exiting
